/*--------------------------------*- C++ -*----------------------------------*\
| =========                 |                                                 |
| \\      /  F ield         | OpenFOAM: The Open Source CFD Toolbox           |
|  \\    /   O peration     | Version:  2306                                  |
|   \\  /    A nd           | Website:  www.openfoam.com                      |
|    \\/     M anipulation  |                                                 |
\*---------------------------------------------------------------------------*/
FoamFile
{
    version     2.0;
    format      ascii;
    arch        "LSB;label=32;scalar=64";
    class       volVectorField;
    location    "0";
    object      tStar;
}
// * * * * * * * * * * * * * * * * * * * * * * * * * * * * * * * * * * * * * //

dimensions      [0 1 -2 0 0 0 0];

internalField   nonuniform List<vector> 
14751
(
(2.75897e-06 7.34803e-09 2.4528e-09)
(4.55224e-06 6.3696e-09 5.14642e-09)
(3.05839e-06 6.36933e-09 3.45402e-09)
(4.00609e-06 9.2828e-09 4.09959e-09)
(2.69072e-06 8.22584e-09 3.14016e-09)
(3.77198e-06 7.13053e-09 4.21286e-09)
(4.42655e-06 8.65506e-09 4.69365e-09)
(2.43622e-06 8.68402e-09 1.79092e-09)
(3.01332e-06 7.50109e-09 2.57761e-09)
(3.36548e-06 8.83946e-09 3.58295e-09)
(3.60809e-06 1.16016e-08 3.68457e-09)
(3.97381e-06 9.88054e-09 3.33276e-09)
(4.33362e-06 8.59522e-09 3.40179e-09)
(4.48283e-06 9.72929e-09 2.9702e-09)
(2.42475e-06 8.81548e-09 1.3976e-09)
(2.89221e-06 7.81432e-09 1.89338e-09)
(3.28053e-06 8.33798e-09 2.36068e-09)
(3.62599e-06 9.88793e-09 3.07347e-09)
(4.01603e-06 1.14746e-08 3.98328e-09)
(4.44291e-06 1.26178e-08 4.7707e-09)
(2.79074e-06 1.26118e-08 3.92879e-09)
(3.31103e-06 1.57628e-08 5.11271e-09)
(3.91578e-06 1.6437e-08 5.7854e-09)
(2.57771e-06 1.55535e-08 3.98538e-09)
(3.26803e-06 1.90977e-08 4.23372e-09)
(4.04969e-06 1.91835e-08 4.38058e-09)
(2.9523e-06 1.72914e-08 3.19895e-09)
(3.8353e-06 1.94487e-08 5.04297e-09)
(2.84698e-06 1.70506e-08 4.4333e-09)
(3.82502e-06 1.81327e-08 5.57238e-09)
(3.00258e-06 1.67158e-08 4.536e-09)
(4.05762e-06 1.72326e-08 5.78234e-09)
(3.31554e-06 1.57386e-08 5.18343e-09)
(2.69193e-06 1.35639e-08 4.69187e-09)
(3.8986e-06 1.23009e-08 5.14584e-09)
(3.26966e-06 9.85904e-09 5.81991e-09)
(2.76966e-06 9.00141e-09 4.61479e-09)
(4.07336e-06 9.08986e-09 4.71676e-09)
(3.64578e-06 7.47442e-09 2.85902e-09)
(3.27435e-06 5.5853e-09 2.36815e-09)
(2.90775e-06 2.56757e-09 3.76951e-09)
(2.61414e-06 4.51697e-10 3.83631e-09)
(4.11762e-06 -2.42165e-09 5.20379e-09)
(3.81444e-06 -3.12673e-09 4.35362e-09)
(3.60686e-06 -4.59209e-09 4.34158e-09)
(3.47363e-06 -7.09761e-09 4.38071e-09)
(3.36414e-06 -9.03528e-09 4.08314e-09)
(3.29642e-06 -1.19348e-08 5.05412e-09)
(3.23832e-06 -1.26373e-08 5.05694e-09)
(3.20986e-06 -1.72273e-08 4.64142e-09)
(3.24423e-06 -1.80355e-08 3.60795e-09)
(3.27009e-06 -1.83579e-08 3.5762e-09)
(3.36249e-06 -2.19392e-08 4.31072e-09)
(3.46693e-06 -2.26767e-08 4.01427e-09)
(3.6223e-06 -2.25129e-08 3.72635e-09)
(3.79636e-06 -2.42835e-08 3.11262e-09)
(2.11218e-06 -2.75422e-08 1.06638e-09)
(2.39626e-06 -2.79478e-08 2.97937e-09)
(2.68504e-06 -2.50861e-08 4.10587e-09)
(3.01545e-06 -2.9326e-08 4.50665e-09)
(3.40399e-06 -2.99284e-08 3.99098e-09)
(3.83056e-06 -2.89688e-08 4.05071e-09)
(2.36737e-06 -2.65652e-08 3.43191e-09)
(2.90553e-06 -3.15082e-08 4.60161e-09)
(3.47087e-06 -3.05126e-08 5.24014e-09)
(2.09333e-06 -2.54929e-08 3.26224e-09)
(2.82254e-06 -2.83413e-08 3.81477e-09)
(3.58408e-06 -2.89036e-08 4.13784e-09)
(2.34553e-06 -2.42739e-08 2.57625e-09)
(3.29414e-06 -2.33527e-08 4.1647e-09)
(2.14894e-06 -2.33721e-08 2.98448e-09)
(3.25542e-06 -2.40435e-08 4.23658e-09)
(2.22306e-06 -1.70736e-08 3.14683e-09)
(3.48735e-06 -1.89199e-08 5.14982e-09)
(2.60177e-06 -1.73536e-08 4.0905e-09)
(1.80425e-06 -1.33119e-08 3.23175e-09)
(3.33565e-06 -1.14691e-08 5.0222e-09)
(2.64574e-06 -1.02727e-08 3.66047e-09)
(2.07309e-06 -8.01135e-09 2.81296e-09)
(3.89805e-06 -6.84001e-09 5.087e-09)
(3.43236e-06 -3.80566e-09 4.24087e-09)
(3.04987e-06 -2.85647e-09 3.70576e-09)
(2.58077e-06 -1.75165e-09 3.65515e-09)
(2.14826e-06 -4.00827e-10 3.20411e-09)
(1.75817e-06 -7.19259e-10 2.65798e-09)
(3.99189e-06 -1.29269e-09 5.15526e-09)
(3.66179e-06 -3.22527e-10 4.92045e-09)
(3.36581e-06 4.56661e-10 4.23596e-09)
(3.12812e-06 1.17018e-09 4.10594e-09)
(2.9084e-06 1.56343e-09 4.42435e-09)
(2.69055e-06 1.383e-09 3.91777e-09)
(2.45683e-06 2.0286e-09 3.23047e-09)
(2.10688e-06 3.23149e-09 2.43143e-09)
(1.6443e-06 2.96508e-09 1.8218e-09)
(3.76565e-06 2.90763e-09 4.7344e-09)
(3.00053e-06 5.31396e-09 3.67535e-09)
(1.93967e-06 5.39243e-09 2.05291e-09)
(2.96286e-06 4.10061e-09 2.91505e-09)
(3.2929e-06 5.63509e-09 3.19283e-09)
(-7.90614e-05 5.74998e-07 -1.49806e-08)
(-8.08074e-05 5.38374e-07 9.04609e-10)
(-7.99465e-05 6.51706e-07 -3.088e-09)
(-7.99639e-05 8.04574e-07 -6.92715e-09)
(-7.56057e-05 7.75528e-07 1.79549e-08)
(-7.71059e-05 7.74921e-07 -7.15242e-10)
(-7.67363e-05 8.98248e-07 -3.46927e-09)
(-7.02591e-05 9.72361e-07 8.21495e-09)
(-6.91669e-05 9.31885e-07 3.26295e-08)
(-6.61047e-05 9.49681e-07 5.39984e-08)
(-6.44222e-05 1.09392e-06 3.63383e-08)
(-6.27835e-05 1.07275e-06 1.52118e-08)
(-5.86645e-05 9.77574e-07 2.67432e-08)
(-5.69428e-05 1.09072e-06 2.98496e-08)
(-5.04761e-05 1.12706e-06 7.1634e-08)
(-4.62777e-05 1.02869e-06 9.05104e-08)
(-4.36751e-05 1.02028e-06 1.10966e-07)
(-4.12099e-05 1.09802e-06 1.40568e-07)
(-3.85128e-05 1.03794e-06 1.35423e-07)
(-3.57903e-05 9.19741e-07 1.20736e-07)
(-2.9322e-05 9.56437e-07 1.26464e-07)
(-2.803e-05 9.76645e-07 1.06731e-07)
(-2.52886e-05 8.75305e-07 7.43845e-08)
(-1.86122e-05 8.48996e-07 5.2017e-08)
(-1.72997e-05 8.744e-07 3.87565e-08)
(-1.62071e-05 8.04443e-07 3.18978e-08)
(-9.86339e-06 7.41353e-07 4.92743e-08)
(-8.827e-06 7.42341e-07 7.31903e-08)
(-4.19744e-06 7.18368e-07 8.5569e-08)
(-4.72828e-06 6.50186e-07 8.49837e-08)
(2.00487e-08 6.07922e-07 7.58656e-08)
(9.55504e-07 5.82122e-07 7.49969e-08)
(3.54847e-06 5.29095e-07 7.01999e-08)
(7.88287e-06 4.80739e-07 6.7381e-08)
(7.27169e-06 4.25701e-07 5.0222e-08)
(9.62459e-06 3.66188e-07 7.12476e-08)
(1.23204e-05 3.26855e-07 4.9299e-08)
(1.1321e-05 2.79843e-07 1.98712e-08)
(1.36677e-05 2.24393e-07 6.11534e-09)
(1.59885e-05 1.82042e-07 1.82438e-08)
(1.81405e-05 1.57291e-07 5.69933e-08)
(2.05151e-05 9.46951e-08 5.12453e-08)
(1.79792e-05 6.12448e-09 3.93959e-08)
(1.98935e-05 -2.05394e-08 2.46318e-08)
(2.0447e-05 -5.79405e-08 2.84205e-08)
(2.21541e-05 -1.51393e-07 2.88523e-08)
(2.24307e-05 -2.06458e-07 3.58966e-08)
(2.2764e-05 -2.13689e-07 5.76251e-08)
(2.30498e-05 -2.799e-07 5.45784e-08)
(2.32596e-05 -3.82797e-07 4.19578e-08)
(2.33396e-05 -3.91145e-07 2.46243e-08)
(2.33163e-05 -4.02523e-07 3.53892e-08)
(2.30563e-05 -5.11067e-07 5.3207e-08)
(2.14571e-05 -5.61665e-07 4.63023e-08)
(2.10741e-05 -5.39672e-07 4.12334e-08)
(2.05214e-05 -6.03911e-07 2.76918e-08)
(2.19785e-05 -7.16773e-07 2.96999e-08)
(2.15307e-05 -7.10867e-07 6.26103e-08)
(1.94078e-05 -6.89166e-07 6.4553e-08)
(1.71522e-05 -7.92639e-07 5.37313e-08)
(1.50963e-05 -8.36109e-07 3.49445e-08)
(1.21924e-05 -7.85955e-07 2.93737e-08)
(1.37038e-05 -8.25992e-07 4.75095e-08)
(1.11555e-05 -9.31501e-07 4.90568e-08)
(8.27053e-06 -9.04052e-07 3.7794e-08)
(9.48509e-06 -8.65775e-07 2.38499e-08)
(5.13833e-06 -9.47145e-07 1.10133e-08)
(2.15093e-06 -9.77127e-07 -2.99843e-09)
(1.40108e-06 -9.04202e-07 -1.86445e-09)
(-3.13595e-06 -9.04429e-07 1.00814e-08)
(-3.87656e-06 -9.9229e-07 1.69343e-08)
(-8.68798e-06 -9.55529e-07 1.60604e-08)
(-9.32461e-06 -8.76152e-07 2.14355e-08)
(-1.45452e-05 -9.30571e-07 2.27415e-08)
(-1.52452e-05 -9.52134e-07 1.61518e-08)
(-1.75394e-05 -8.70332e-07 1.51636e-08)
(-2.26155e-05 -8.2757e-07 1.66103e-08)
(-2.56301e-05 -8.78691e-07 9.33241e-09)
(-2.76345e-05 -8.20323e-07 1.27931e-08)
(-3.2801e-05 -7.44797e-07 8.84177e-09)
(-3.53193e-05 -7.43228e-07 5.57498e-09)
(-3.79917e-05 -7.35707e-07 7.40902e-09)
(-4.22719e-05 -6.48412e-07 1.45748e-08)
(-4.44854e-05 -5.93366e-07 1.10648e-08)
(-4.57737e-05 -5.62099e-07 8.57822e-09)
(-5.29929e-05 -5.06042e-07 -3.12368e-09)
(-5.71129e-05 -4.35312e-07 -4.41122e-09)
(-5.89964e-05 -3.84018e-07 -1.14111e-08)
(-6.25109e-05 -3.10896e-07 -2.98981e-09)
(-6.3734e-05 -2.43446e-07 7.56649e-09)
(-6.69384e-05 -1.81745e-07 -7.52838e-09)
(-6.78766e-05 -9.11824e-08 -1.95961e-08)
(-6.88413e-05 -1.76921e-08 -2.48274e-08)
(-6.89986e-05 3.51051e-08 -2.03614e-08)
(-7.56167e-05 1.27731e-07 -2.14023e-08)
(-7.66377e-05 2.52178e-07 -2.18758e-08)
(-7.5204e-05 3.03745e-07 -1.88005e-08)
(-7.74069e-05 3.35918e-07 -2.42241e-08)
(-8.03558e-05 4.60226e-07 -2.41154e-08)
(-3.59633e-05 3.71259e-07 -1.67675e-08)
(-3.79157e-05 5.14185e-07 -2.76377e-09)
(-3.61332e-05 4.91964e-07 1.01506e-08)
(-3.68382e-05 4.90708e-07 8.30663e-09)
(-3.77933e-05 5.84029e-07 9.08536e-09)
(-3.39619e-05 6.12506e-07 2.25208e-08)
(-3.33595e-05 5.83887e-07 1.76711e-08)
(-3.63505e-05 5.95554e-07 4.30219e-09)
(-3.27905e-05 6.27725e-07 1.99283e-08)
(-3.48515e-05 7.02028e-07 3.04061e-08)
(-3.27447e-05 6.11209e-07 3.19726e-08)
(-2.88726e-05 6.1761e-07 2.71174e-08)
(-3.08251e-05 6.81581e-07 1.55142e-08)
(-2.89623e-05 5.88311e-07 3.45073e-08)
(-2.58687e-05 5.75807e-07 5.84627e-08)
(-2.72628e-05 6.14045e-07 8.53167e-08)
(-2.46198e-05 6.1073e-07 1.19343e-07)
(-2.17478e-05 5.53554e-07 1.3335e-07)
(-1.95108e-05 5.31021e-07 1.5239e-07)
(-1.80935e-05 5.92758e-07 1.67934e-07)
(-1.82e-05 5.54619e-07 1.65508e-07)
(-1.30297e-05 5.00717e-07 1.69104e-07)
(-1.13797e-05 5.12001e-07 1.61319e-07)
(-1.2998e-05 4.9072e-07 1.30996e-07)
(-8.54845e-06 4.4714e-07 1.06655e-07)
(-4.67585e-06 4.55534e-07 9.1171e-08)
(-6.5389e-06 4.44731e-07 8.67303e-08)
(-3.48516e-06 3.72235e-07 1.17628e-07)
(-3.0619e-06 3.3284e-07 1.25043e-07)
(2.27313e-06 3.29827e-07 1.36229e-07)
(2.87433e-06 3.03004e-07 1.47394e-07)
(3.10857e-06 2.38363e-07 1.47405e-07)
(7.06964e-06 2.35933e-07 1.5881e-07)
(6.02918e-06 1.86674e-07 1.65513e-07)
(8.10597e-06 1.21949e-07 1.57721e-07)
(1.0119e-05 1.03091e-07 1.6438e-07)
(1.06443e-05 6.42768e-08 1.46772e-07)
(1.36289e-05 4.86531e-08 1.06675e-07)
(1.43479e-05 3.20687e-08 6.87185e-08)
(1.50693e-05 -2.46112e-08 6.8588e-08)
(1.47716e-05 -9.19131e-08 1.11501e-07)
(1.47551e-05 -1.32722e-07 1.45231e-07)
(1.81645e-05 -1.3893e-07 1.49868e-07)
(1.73072e-05 -2.15788e-07 1.5179e-07)
(1.93759e-05 -2.60746e-07 1.43454e-07)
(1.79962e-05 -2.4281e-07 1.51346e-07)
(1.8666e-05 -2.83267e-07 1.30983e-07)
(2.0075e-05 -3.48115e-07 1.21766e-07)
(2.02766e-05 -3.8089e-07 1.35993e-07)
(2.08187e-05 -3.75032e-07 1.39959e-07)
(2.08875e-05 -4.1987e-07 1.20799e-07)
(2.12164e-05 -4.89835e-07 9.14678e-08)
(1.98152e-05 -4.61056e-07 8.20024e-08)
(2.2531e-05 -4.84409e-07 8.15336e-08)
(2.13953e-05 -5.65764e-07 6.43087e-08)
(1.89135e-05 -5.76307e-07 8.31097e-08)
(1.97893e-05 -5.36744e-07 9.45791e-08)
(1.72122e-05 -5.6851e-07 1.2443e-07)
(1.68129e-05 -6.36627e-07 1.61423e-07)
(1.72093e-05 -5.66946e-07 1.60913e-07)
(1.76654e-05 -5.75447e-07 1.27056e-07)
(1.64193e-05 -6.49227e-07 1.03572e-07)
(1.39081e-05 -6.46141e-07 1.11249e-07)
(1.38186e-05 -5.73863e-07 1.36352e-07)
(1.22636e-05 -6.29167e-07 1.30375e-07)
(7.63225e-06 -6.60095e-07 7.98326e-08)
(9.71205e-06 -5.67112e-07 5.28149e-08)
(6.55474e-06 -5.5132e-07 3.1781e-08)
(5.10509e-06 -6.10406e-07 1.70513e-08)
(4.9393e-06 -6.12778e-07 2.16291e-08)
(3.35766e-06 -4.96788e-07 2.39008e-08)
(1.05523e-06 -4.81067e-07 2.0559e-08)
(-8.76173e-07 -5.34451e-07 2.89677e-08)
(-2.13403e-06 -4.51424e-07 5.02676e-08)
(-7.19341e-06 -4.07442e-07 5.53153e-08)
(-6.62678e-06 -4.21407e-07 6.16097e-08)
(-1.10886e-05 -4.31186e-07 3.56046e-08)
(-1.05843e-05 -3.25418e-07 1.94865e-08)
(-1.14072e-05 -3.36877e-07 1.38925e-08)
(-1.57901e-05 -3.11665e-07 1.89489e-08)
(-1.907e-05 -2.75139e-07 1.33656e-08)
(-2.14331e-05 -2.04346e-07 1.69759e-08)
(-2.03228e-05 -1.93088e-07 3.06022e-08)
(-2.26611e-05 -1.44001e-07 3.1577e-08)
(-2.52644e-05 -1.1879e-07 2.25911e-08)
(-2.7034e-05 -8.91259e-08 1.28411e-08)
(-2.43625e-05 -5.24266e-08 2.17011e-08)
(-2.78327e-05 5.71279e-09 1.43978e-08)
(-2.52926e-05 3.80068e-08 1.6984e-08)
(-3.04747e-05 7.06794e-08 1.60346e-08)
(-2.76349e-05 1.16632e-07 6.26782e-09)
(-3.01017e-05 1.51655e-07 -1.0268e-08)
(-3.27735e-05 2.02679e-07 -2.37327e-08)
(-3.51003e-05 2.33083e-07 -2.66959e-08)
(-3.37205e-05 2.65937e-07 -1.68409e-08)
(-3.29708e-05 2.96534e-07 -1.36827e-08)
(-3.4283e-05 3.19283e-07 -2.36069e-08)
(-3.68889e-05 3.76674e-07 -3.24183e-08)
(-3.18003e-05 4.12701e-07 -1.80042e-08)
(-3.92563e-05 6.92658e-07 -2.48655e-08)
(-3.53396e-05 8.14772e-07 7.54629e-10)
(-3.87407e-05 7.94512e-07 1.48063e-08)
(-3.80402e-05 8.41617e-07 1.23011e-08)
(-3.93372e-05 8.59221e-07 4.55872e-10)
(-4.10692e-05 8.62715e-07 1.07363e-08)
(-4.17198e-05 8.98734e-07 1.40716e-08)
(-3.99824e-05 9.1348e-07 1.777e-10)
(-4.06163e-05 9.52806e-07 -1.20413e-09)
(-3.9119e-05 9.02148e-07 -5.40115e-09)
(-3.83456e-05 9.43535e-07 -2.57906e-09)
(-3.82665e-05 9.1481e-07 -1.58652e-09)
(-3.46545e-05 9.4239e-07 -2.02056e-09)
(-3.22832e-05 8.96573e-07 2.05997e-08)
(-3.15694e-05 8.73976e-07 3.54764e-08)
(-2.82851e-05 9.21274e-07 7.08539e-08)
(-2.70528e-05 8.53357e-07 1.02975e-07)
(-2.70539e-05 8.07667e-07 9.86108e-08)
(-2.35747e-05 8.22795e-07 1.11324e-07)
(-2.0476e-05 7.56981e-07 1.51879e-07)
(-1.8748e-05 7.50374e-07 1.34067e-07)
(-1.71112e-05 7.28871e-07 1.48396e-07)
(-1.64007e-05 6.87109e-07 1.66589e-07)
(-1.16754e-05 6.39808e-07 1.60787e-07)
(-1.1908e-05 6.09976e-07 1.43843e-07)
(-1.01352e-05 5.73435e-07 1.29778e-07)
(-5.21423e-06 5.14208e-07 1.32654e-07)
(-4.9516e-06 4.53511e-07 1.47592e-07)
(-2.34486e-06 3.94488e-07 1.60442e-07)
(-8.74421e-07 3.43922e-07 1.59392e-07)
(7.238e-07 2.89486e-07 1.85247e-07)
(4.76091e-06 2.45796e-07 2.04373e-07)
(3.58261e-06 1.57126e-07 2.3698e-07)
(5.27736e-06 9.51859e-08 2.45349e-07)
(9.18925e-06 3.19932e-08 2.2379e-07)
(9.58518e-06 -2.20746e-08 2.04774e-07)
(1.22927e-05 -4.2641e-08 1.99952e-07)
(1.17251e-05 -7.5551e-08 1.61355e-07)
(1.29853e-05 -1.43731e-07 1.22042e-07)
(1.36445e-05 -2.10499e-07 1.13829e-07)
(1.73916e-05 -2.80841e-07 1.67523e-07)
(1.74237e-05 -3.88161e-07 2.42339e-07)
(1.90395e-05 -4.2915e-07 2.63845e-07)
(1.97611e-05 -4.58215e-07 2.79857e-07)
(2.07529e-05 -5.17028e-07 2.59255e-07)
(2.08142e-05 -5.64233e-07 2.62968e-07)
(2.27063e-05 -5.72648e-07 2.22604e-07)
(2.2006e-05 -6.14156e-07 1.93367e-07)
(2.28445e-05 -6.79663e-07 2.08969e-07)
(2.37474e-05 -7.16717e-07 2.19561e-07)
(2.37033e-05 -7.42844e-07 1.84456e-07)
(2.28214e-05 -7.74816e-07 1.41621e-07)
(2.46995e-05 -8.0887e-07 9.99518e-08)
(2.2114e-05 -8.50773e-07 7.01105e-08)
(2.27486e-05 -8.35496e-07 7.3369e-08)
(2.31815e-05 -8.6723e-07 1.04425e-07)
(2.19064e-05 -9.09714e-07 1.30325e-07)
(2.12366e-05 -9.01942e-07 1.58105e-07)
(2.14978e-05 -8.81506e-07 2.25566e-07)
(2.1442e-05 -8.76613e-07 2.63632e-07)
(1.71207e-05 -9.06301e-07 2.31043e-07)
(1.84064e-05 -8.64911e-07 2.0288e-07)
(1.76737e-05 -8.71508e-07 1.90495e-07)
(1.46571e-05 -8.84874e-07 1.84982e-07)
(1.4258e-05 -8.70775e-07 1.72049e-07)
(1.4015e-05 -8.19261e-07 1.20218e-07)
(1.14494e-05 -7.8798e-07 8.73459e-08)
(8.49586e-06 -7.73582e-07 7.98578e-08)
(8.74453e-06 -7.34239e-07 5.58709e-08)
(4.33751e-06 -6.86486e-07 3.9629e-08)
(1.48086e-06 -6.90142e-07 3.63995e-08)
(2.2441e-06 -6.62209e-07 3.86553e-08)
(-1.81335e-06 -5.85606e-07 4.21624e-08)
(-3.41641e-06 -5.52768e-07 6.77415e-08)
(-4.68512e-06 -5.15731e-07 9.45639e-08)
(-8.21259e-06 -4.44231e-07 9.67544e-08)
(-7.61988e-06 -4.15865e-07 6.75716e-08)
(-1.26308e-05 -3.93418e-07 3.68584e-08)
(-1.47101e-05 -3.14029e-07 2.68037e-08)
(-1.69013e-05 -2.73373e-07 2.37446e-08)
(-1.39123e-05 -2.18557e-07 2.94032e-08)
(-1.76053e-05 -1.9645e-07 3.6475e-08)
(-1.89714e-05 -1.24156e-07 5.35516e-08)
(-2.00994e-05 -7.85126e-08 5.27711e-08)
(-2.00879e-05 -3.60565e-08 4.08292e-08)
(-2.12863e-05 3.14658e-08 2.88093e-08)
(-2.36802e-05 7.16623e-08 2.37675e-08)
(-2.53311e-05 1.42329e-07 1.71014e-08)
(-2.85312e-05 1.93107e-07 7.665e-09)
(-2.68463e-05 2.60462e-07 8.20548e-09)
(-2.892e-05 3.16758e-07 -7.31857e-09)
(-2.99869e-05 3.2956e-07 -2.49555e-08)
(-3.09099e-05 3.74066e-07 -3.50558e-08)
(-2.95502e-05 4.56124e-07 -3.17817e-08)
(-3.06013e-05 4.75617e-07 -1.88528e-08)
(-2.87093e-05 5.42479e-07 -1.23015e-08)
(-3.41042e-05 6.06061e-07 -3.29585e-08)
(-3.01699e-05 6.52304e-07 -3.20887e-08)
(-3.64546e-05 6.75499e-07 -3.14467e-08)
(-6.65516e-05 1.24497e-06 -5.69003e-08)
(-6.13296e-05 1.23945e-06 -3.30853e-08)
(-6.29378e-05 1.28156e-06 -1.71413e-08)
(-5.71693e-05 1.40222e-06 -1.5669e-08)
(-5.55941e-05 1.31524e-06 -4.48774e-08)
(-4.99443e-05 1.27851e-06 -2.23674e-08)
(-5.02389e-05 1.34699e-06 3.8042e-10)
(-4.74822e-05 1.3808e-06 -1.59864e-08)
(-4.87298e-05 1.31981e-06 -4.46693e-08)
(-4.65827e-05 1.29464e-06 -7.42368e-08)
(-4.53736e-05 1.35934e-06 -7.13091e-08)
(-4.35599e-05 1.3091e-06 -4.77134e-08)
(-4.19748e-05 1.26104e-06 -4.07976e-08)
(-4.04957e-05 1.21181e-06 -1.56108e-08)
(-3.86399e-05 1.19019e-06 2.88943e-10)
(-3.7894e-05 1.09915e-06 2.5282e-08)
(-3.50365e-05 1.08006e-06 4.91851e-08)
(-3.19375e-05 1.05645e-06 2.52626e-08)
(-2.9413e-05 1.00463e-06 1.5513e-08)
(-2.86812e-05 9.04862e-07 3.92341e-08)
(-2.53638e-05 9.02408e-07 3.64396e-08)
(-2.35011e-05 8.42754e-07 6.62424e-08)
(-1.97324e-05 8.05797e-07 1.14092e-07)
(-1.66039e-05 7.73727e-07 1.36918e-07)
(-1.3388e-05 7.24928e-07 1.59129e-07)
(-1.19247e-05 6.05551e-07 1.60195e-07)
(-1.08957e-05 5.17048e-07 1.45026e-07)
(-6.62457e-06 4.25715e-07 1.54912e-07)
(-4.35771e-06 3.64589e-07 1.75687e-07)
(-1.9887e-06 2.71796e-07 1.73769e-07)
(-5.62499e-07 1.96351e-07 1.94356e-07)
(4.61032e-07 8.23557e-08 2.20564e-07)
(3.8556e-06 -2.80643e-10 2.64577e-07)
(6.59939e-06 -6.45021e-08 2.75294e-07)
(7.70875e-06 -1.61138e-07 2.45692e-07)
(8.76862e-06 -2.64795e-07 2.10759e-07)
(1.08969e-05 -3.32318e-07 1.93932e-07)
(1.24327e-05 -3.46683e-07 1.8777e-07)
(1.50294e-05 -4.07995e-07 1.65032e-07)
(1.74598e-05 -4.87682e-07 1.51937e-07)
(1.75825e-05 -6.39781e-07 2.20532e-07)
(2.04652e-05 -7.51274e-07 3.09448e-07)
(1.94597e-05 -8.15646e-07 3.31671e-07)
(2.24507e-05 -8.92579e-07 3.54176e-07)
(2.23261e-05 -9.51677e-07 3.03079e-07)
(2.37022e-05 -9.71899e-07 3.00414e-07)
(2.42867e-05 -1.00514e-06 2.65331e-07)
(2.43822e-05 -1.07225e-06 2.35402e-07)
(2.62647e-05 -1.09985e-06 2.30333e-07)
(2.41733e-05 -1.14153e-06 1.96724e-07)
(2.65313e-05 -1.16132e-06 1.59353e-07)
(2.57345e-05 -1.23076e-06 1.3273e-07)
(2.63195e-05 -1.25319e-06 7.25162e-08)
(2.71217e-05 -1.28078e-06 1.781e-08)
(2.53222e-05 -1.3026e-06 5.61168e-08)
(2.52696e-05 -1.2722e-06 8.78294e-08)
(2.5163e-05 -1.28568e-06 1.0982e-07)
(2.46975e-05 -1.27629e-06 1.41825e-07)
(2.19178e-05 -1.28495e-06 2.02185e-07)
(2.17128e-05 -1.22529e-06 2.48418e-07)
(2.01755e-05 -1.22256e-06 2.70646e-07)
(1.97087e-05 -1.21492e-06 2.60642e-07)
(1.82364e-05 -1.19498e-06 2.10371e-07)
(1.79163e-05 -1.12967e-06 1.55896e-07)
(1.52392e-05 -1.11301e-06 1.04417e-07)
(1.28046e-05 -1.06168e-06 9.13054e-08)
(1.02185e-05 -9.63907e-07 9.63547e-08)
(9.69885e-06 -9.09489e-07 1.16939e-07)
(7.63797e-06 -8.82279e-07 1.08517e-07)
(5.14636e-06 -8.27699e-07 8.90288e-08)
(3.1002e-06 -7.76679e-07 7.66836e-08)
(-5.80677e-07 -6.78805e-07 7.76695e-08)
(-2.00068e-06 -6.4096e-07 8.70297e-08)
(-4.98778e-06 -5.39933e-07 1.04021e-07)
(-4.64726e-06 -4.94495e-07 1.20233e-07)
(-1.02491e-05 -4.28697e-07 1.05546e-07)
(-9.16939e-06 -4.02506e-07 8.48242e-08)
(-1.13754e-05 -3.29198e-07 7.1974e-08)
(-1.3553e-05 -2.57757e-07 5.66711e-08)
(-1.2433e-05 -1.42276e-07 4.3084e-08)
(-1.73074e-05 -1.06555e-07 3.86316e-08)
(-1.84214e-05 -3.76161e-08 5.53777e-08)
(-2.25623e-05 4.35307e-08 5.80719e-08)
(-2.22037e-05 1.08211e-07 5.57414e-08)
(-2.64267e-05 1.78126e-07 3.634e-08)
(-2.7466e-05 2.24314e-07 1.81161e-08)
(-2.91104e-05 3.34647e-07 2.67308e-09)
(-3.11825e-05 3.88009e-07 -8.48356e-09)
(-3.33872e-05 4.85558e-07 -2.71148e-08)
(-3.31516e-05 5.45095e-07 -3.9665e-08)
(-3.52469e-05 6.40511e-07 -5.37091e-08)
(-3.69004e-05 6.85535e-07 -7.13844e-08)
(-3.80799e-05 7.82617e-07 -7.73506e-08)
(-4.20086e-05 8.21987e-07 -7.58755e-08)
(-4.8684e-05 9.09977e-07 -6.24465e-08)
(-5.50239e-05 9.94646e-07 -6.80291e-08)
(-5.66206e-05 1.03801e-06 -8.17936e-08)
(-6.10577e-05 1.10081e-06 -8.42656e-08)
(-6.36568e-05 1.12005e-06 -7.45576e-08)
(-6.70778e-05 1.70117e-06 -8.71772e-08)
(-6.38209e-05 1.83009e-06 -6.88874e-08)
(-6.93339e-05 1.82069e-06 -8.52179e-08)
(-6.94042e-05 1.85949e-06 -1.02036e-07)
(-6.97168e-05 1.76742e-06 -1.24523e-07)
(-7.4738e-05 1.80943e-06 -1.37507e-07)
(-6.82928e-05 1.77867e-06 -1.0808e-07)
(-6.51801e-05 1.75651e-06 -1.05185e-07)
(-5.721e-05 1.8071e-06 -1.34813e-07)
(-5.2846e-05 1.76652e-06 -1.6842e-07)
(-4.86466e-05 1.658e-06 -1.81138e-07)
(-4.76222e-05 1.60598e-06 -1.71177e-07)
(-4.51775e-05 1.61286e-06 -1.27996e-07)
(-4.36569e-05 1.47695e-06 -9.13805e-08)
(-3.99557e-05 1.38861e-06 -4.44655e-08)
(-3.70483e-05 1.3565e-06 -1.28013e-08)
(-3.5185e-05 1.34083e-06 -4.28254e-08)
(-3.11696e-05 1.21942e-06 -9.16352e-08)
(-3.06652e-05 1.1229e-06 -1.15145e-07)
(-2.65546e-05 1.05501e-06 -1.31204e-07)
(-2.35485e-05 9.98205e-07 -1.05368e-07)
(-2.16108e-05 9.15715e-07 -2.41606e-08)
(-1.87409e-05 8.44168e-07 6.0749e-08)
(-1.68386e-05 7.65505e-07 9.33875e-08)
(-1.36768e-05 6.8048e-07 1.43107e-07)
(-1.23278e-05 5.59341e-07 1.52541e-07)
(-7.52837e-06 4.6239e-07 1.22688e-07)
(-7.04707e-06 3.29369e-07 1.32331e-07)
(-3.94149e-06 2.10006e-07 1.87492e-07)
(-6.00434e-07 9.43409e-08 1.70629e-07)
(1.11674e-06 -1.48386e-08 1.71272e-07)
(3.70644e-06 -1.64906e-07 1.87197e-07)
(6.40968e-06 -3.16769e-07 1.95619e-07)
(7.97927e-06 -3.95088e-07 1.71347e-07)
(1.10048e-05 -5.26049e-07 1.60327e-07)
(1.22936e-05 -6.23295e-07 1.52838e-07)
(1.46658e-05 -7.03379e-07 1.65078e-07)
(1.57766e-05 -7.51191e-07 1.86317e-07)
(1.80456e-05 -8.51299e-07 1.59576e-07)
(1.88568e-05 -9.72779e-07 1.4074e-07)
(1.96448e-05 -1.12628e-06 2.2827e-07)
(2.26522e-05 -1.22915e-06 2.81465e-07)
(2.26254e-05 -1.34656e-06 2.71883e-07)
(2.50606e-05 -1.39937e-06 2.66932e-07)
(2.51785e-05 -1.48599e-06 2.20647e-07)
(2.58305e-05 -1.58892e-06 2.11927e-07)
(2.69018e-05 -1.58159e-06 2.25545e-07)
(2.78726e-05 -1.58464e-06 2.18412e-07)
(2.74443e-05 -1.64625e-06 1.48997e-07)
(2.86752e-05 -1.67285e-06 5.75866e-08)
(2.78962e-05 -1.71181e-06 2.29547e-08)
(2.87719e-05 -1.72382e-06 9.39287e-09)
(2.9361e-05 -1.81744e-06 -4.41491e-08)
(2.76562e-05 -1.80788e-06 -6.49669e-08)
(2.71637e-05 -1.78447e-06 2.38711e-09)
(2.7199e-05 -1.73289e-06 9.42085e-09)
(2.76776e-05 -1.75266e-06 2.72312e-08)
(2.566e-05 -1.74034e-06 6.06614e-08)
(2.59366e-05 -1.66943e-06 7.40992e-08)
(2.40954e-05 -1.65759e-06 7.39581e-08)
(2.38823e-05 -1.58341e-06 1.29575e-07)
(2.12598e-05 -1.54295e-06 1.29068e-07)
(2.08764e-05 -1.45489e-06 6.59288e-08)
(1.94455e-05 -1.40503e-06 -2.05453e-08)
(1.55949e-05 -1.34634e-06 -5.24012e-08)
(1.49884e-05 -1.22043e-06 -1.59857e-08)
(1.37022e-05 -1.10915e-06 8.51572e-08)
(1.0332e-05 -1.04469e-06 1.23368e-07)
(9.12275e-06 -9.54115e-07 1.55437e-07)
(4.8086e-06 -8.7058e-07 1.45155e-07)
(5.14545e-06 -7.91771e-07 1.42084e-07)
(3.5563e-07 -6.53416e-07 1.50767e-07)
(-6.04732e-07 -5.7097e-07 1.64229e-07)
(-2.08797e-06 -4.70966e-07 1.44476e-07)
(-4.54463e-06 -4.20563e-07 1.27278e-07)
(-5.85418e-06 -3.17149e-07 9.16642e-08)
(-7.65274e-06 -2.53464e-07 7.38663e-08)
(-9.97421e-06 -1.5333e-07 8.7267e-08)
(-1.13668e-05 -1.3925e-08 8.57665e-08)
(-1.52353e-05 6.43237e-08 5.30252e-08)
(-1.65597e-05 1.6713e-07 5.67485e-08)
(-1.98367e-05 2.78739e-07 5.5572e-08)
(-2.13704e-05 3.64029e-07 3.55019e-08)
(-2.37886e-05 4.70489e-07 1.69353e-08)
(-2.50596e-05 5.34651e-07 1.89856e-08)
(-2.91466e-05 6.02964e-07 -7.26896e-09)
(-3.02047e-05 7.08708e-07 -3.39926e-08)
(-3.27773e-05 8.49196e-07 -5.96684e-08)
(-3.36691e-05 9.50199e-07 -7.72122e-08)
(-4.05688e-05 1.0337e-06 -1.08405e-07)
(-4.81576e-05 1.13342e-06 -1.2419e-07)
(-5.42272e-05 1.19039e-06 -1.51344e-07)
(-6.41745e-05 1.22942e-06 -1.62891e-07)
(-7.05302e-05 1.31305e-06 -1.55276e-07)
(-6.87771e-05 1.42608e-06 -1.251e-07)
(-6.24675e-05 1.50213e-06 -1.18614e-07)
(-6.44369e-05 1.53962e-06 -1.35532e-07)
(-6.51118e-05 1.64068e-06 -1.32519e-07)
(-5.94084e-05 1.62394e-06 -1.04309e-07)
(-4.96295e-05 2.15352e-06 -1.16525e-07)
(-4.32286e-05 2.23118e-06 -1.09527e-07)
(-5.00219e-05 2.13485e-06 -1.64352e-07)
(-4.75374e-05 2.30391e-06 -1.77078e-07)
(-4.51387e-05 2.19975e-06 -1.64581e-07)
(-4.61183e-05 2.17602e-06 -1.52822e-07)
(-4.59616e-05 2.21037e-06 -1.7886e-07)
(-4.64864e-05 2.26653e-06 -1.99575e-07)
(-4.93851e-05 2.15367e-06 -2.45383e-07)
(-5.38992e-05 2.00496e-06 -2.80646e-07)
(-5.25583e-05 1.96575e-06 -3.19075e-07)
(-4.86709e-05 1.92717e-06 -3.28858e-07)
(-4.6293e-05 1.80954e-06 -2.78094e-07)
(-4.32661e-05 1.73487e-06 -2.00212e-07)
(-4.07777e-05 1.63612e-06 -1.26011e-07)
(-3.79827e-05 1.53591e-06 -8.39827e-08)
(-3.53019e-05 1.408e-06 -1.53386e-07)
(-3.17072e-05 1.34052e-06 -2.2937e-07)
(-2.82052e-05 1.26556e-06 -2.20425e-07)
(-2.61287e-05 1.11561e-06 -2.68763e-07)
(-2.38127e-05 9.46962e-07 -1.9007e-07)
(-2.11558e-05 8.87733e-07 -7.21378e-08)
(-1.75224e-05 8.44068e-07 4.07848e-08)
(-1.49831e-05 6.84329e-07 7.44462e-08)
(-1.22556e-05 5.42635e-07 1.20233e-07)
(-9.16244e-06 4.42944e-07 1.10577e-07)
(-5.93481e-06 2.75191e-07 9.56699e-08)
(-4.636e-06 1.46937e-07 1.45305e-07)
(-1.00372e-06 -3.53854e-08 2.15169e-07)
(8.34302e-07 -1.55734e-07 1.67206e-07)
(4.26863e-06 -3.25016e-07 1.12056e-07)
(5.69037e-06 -5.58452e-07 8.3064e-08)
(8.18791e-06 -7.11888e-07 4.74975e-08)
(1.0462e-05 -8.56611e-07 -3.05032e-08)
(1.18289e-05 -9.86415e-07 -3.50523e-08)
(1.38349e-05 -1.10978e-06 -3.90931e-09)
(1.62246e-05 -1.20146e-06 8.2409e-08)
(1.79008e-05 -1.31891e-06 1.27457e-07)
(1.98629e-05 -1.42405e-06 6.05013e-08)
(1.99206e-05 -1.55544e-06 4.2253e-08)
(2.30058e-05 -1.72477e-06 1.39691e-07)
(2.42642e-05 -1.84071e-06 1.41742e-07)
(2.48047e-05 -1.97301e-06 6.49413e-08)
(2.55333e-05 -2.08839e-06 -1.16219e-08)
(2.70689e-05 -2.15644e-06 2.384e-08)
(2.71223e-05 -2.24016e-06 2.54954e-08)
(2.71678e-05 -2.25048e-06 1.05258e-07)
(2.81381e-05 -2.23861e-06 1.2657e-07)
(2.80574e-05 -2.26697e-06 2.38877e-09)
(2.90494e-05 -2.26427e-06 -7.31837e-08)
(2.90912e-05 -2.30828e-06 -1.10454e-07)
(2.93687e-05 -2.38962e-06 -1.77785e-07)
(2.78089e-05 -2.40799e-06 -2.05714e-07)
(2.98762e-05 -2.32841e-06 -1.44754e-07)
(2.82886e-05 -2.30898e-06 -1.07736e-07)
(2.9753e-05 -2.29807e-06 -9.50193e-08)
(2.68086e-05 -2.23088e-06 -5.66981e-08)
(2.6972e-05 -2.19162e-06 -7.80596e-09)
(2.52244e-05 -2.09391e-06 -1.00442e-07)
(2.50599e-05 -2.00121e-06 -1.70901e-07)
(2.17266e-05 -1.91396e-06 -2.03936e-07)
(2.29957e-05 -1.86077e-06 -2.25897e-07)
(1.92859e-05 -1.74085e-06 -2.52857e-07)
(1.81257e-05 -1.59241e-06 -2.54461e-07)
(1.6297e-05 -1.46574e-06 -2.2702e-07)
(1.37785e-05 -1.35863e-06 -1.02891e-07)
(1.14145e-05 -1.17333e-06 5.37794e-08)
(1.0583e-05 -1.05733e-06 1.346e-07)
(7.99277e-06 -9.44149e-07 1.84127e-07)
(5.8446e-06 -8.73156e-07 2.03985e-07)
(2.91679e-06 -6.94069e-07 2.09352e-07)
(2.28202e-06 -5.55051e-07 2.16577e-07)
(-3.15793e-07 -4.61862e-07 2.19472e-07)
(-8.19424e-07 -3.24591e-07 1.92416e-07)
(-3.07196e-06 -2.05413e-07 1.25039e-07)
(-5.1474e-06 -1.24706e-07 6.61301e-08)
(-6.81248e-06 3.8454e-08 3.60381e-08)
(-9.76517e-06 1.324e-07 5.23199e-08)
(-1.26517e-05 2.57037e-07 5.50075e-08)
(-1.47772e-05 3.84513e-07 4.29592e-08)
(-1.66232e-05 5.38766e-07 3.48576e-08)
(-1.91673e-05 6.36269e-07 9.68409e-09)
(-2.10828e-05 7.86547e-07 -4.18088e-08)
(-2.32479e-05 8.82258e-07 -6.04362e-08)
(-2.64848e-05 9.62657e-07 -5.80055e-08)
(-2.80699e-05 1.10433e-06 -7.12624e-08)
(-2.99163e-05 1.23658e-06 -8.86946e-08)
(-3.41106e-05 1.30308e-06 -1.11629e-07)
(-4.43927e-05 1.35618e-06 -1.26455e-07)
(-5.22119e-05 1.43425e-06 -1.43243e-07)
(-4.81288e-05 1.59995e-06 -1.35334e-07)
(-4.60619e-05 1.69362e-06 -1.32896e-07)
(-4.44801e-05 1.75068e-06 -1.28656e-07)
(-4.17076e-05 1.80286e-06 -1.14036e-07)
(-4.37778e-05 1.91758e-06 -9.8502e-08)
(-4.09185e-05 1.97353e-06 -1.06173e-07)
(-4.41834e-05 1.96411e-06 -1.3661e-07)
(-4.28197e-05 2.0814e-06 -1.42432e-07)
(-4.3001e-05 2.0972e-06 -1.22933e-07)
(-5.45328e-05 2.62088e-06 -1.86029e-07)
(-5.0374e-05 2.66716e-06 -2.11241e-07)
(-5.71165e-05 2.57713e-06 -2.88982e-07)
(-5.21377e-05 2.71455e-06 -2.97071e-07)
(-5.13615e-05 2.61115e-06 -2.59706e-07)
(-5.07586e-05 2.60727e-06 -2.27241e-07)
(-4.79116e-05 2.5908e-06 -2.52543e-07)
(-4.8646e-05 2.46758e-06 -3.17664e-07)
(-4.63325e-05 2.43887e-06 -3.63904e-07)
(-4.48175e-05 2.38543e-06 -3.81053e-07)
(-4.34501e-05 2.21728e-06 -4.23702e-07)
(-4.89117e-05 2.0006e-06 -4.47782e-07)
(-4.66454e-05 1.96291e-06 -4.09852e-07)
(-4.36641e-05 1.89368e-06 -3.34656e-07)
(-4.09953e-05 1.70771e-06 -2.57757e-07)
(-3.8555e-05 1.60696e-06 -2.20063e-07)
(-3.38416e-05 1.53707e-06 -2.7445e-07)
(-3.2312e-05 1.32781e-06 -3.14944e-07)
(-2.88293e-05 1.22233e-06 -2.89444e-07)
(-2.59086e-05 1.11243e-06 -2.98578e-07)
(-2.3093e-05 9.05422e-07 -2.14667e-07)
(-1.98411e-05 7.62318e-07 -6.69524e-08)
(-1.68999e-05 6.1979e-07 3.7195e-09)
(-1.41087e-05 5.07701e-07 2.87144e-08)
(-1.00248e-05 3.59277e-07 7.49213e-08)
(-8.00099e-06 1.28646e-07 6.46901e-08)
(-5.51873e-06 -3.96013e-08 9.54179e-08)
(-2.31647e-06 -1.97643e-07 1.72508e-07)
(-2.21359e-07 -3.77824e-07 1.63049e-07)
(2.82664e-06 -5.79611e-07 1.26572e-07)
(4.95133e-06 -7.78395e-07 -1.29893e-08)
(7.2202e-06 -1.02728e-06 -6.85148e-08)
(8.52047e-06 -1.24911e-06 -1.48597e-07)
(9.82291e-06 -1.42581e-06 -2.01898e-07)
(1.1367e-05 -1.56075e-06 -2.03721e-07)
(1.26686e-05 -1.70859e-06 -1.61156e-07)
(1.40734e-05 -1.88174e-06 -7.86796e-08)
(1.52271e-05 -2.02912e-06 -6.97441e-08)
(1.63077e-05 -2.12216e-06 -1.37146e-07)
(1.8704e-05 -2.24688e-06 -6.1532e-08)
(1.90068e-05 -2.4064e-06 -4.02774e-08)
(1.88511e-05 -2.5727e-06 -8.81714e-08)
(2.10077e-05 -2.7311e-06 -2.12288e-07)
(2.19711e-05 -2.8218e-06 -3.28254e-07)
(2.18866e-05 -2.89208e-06 -2.92465e-07)
(2.3588e-05 -2.9346e-06 -2.4637e-07)
(2.40657e-05 -2.9273e-06 -1.23385e-07)
(2.41778e-05 -2.87908e-06 -9.195e-08)
(2.46441e-05 -2.88619e-06 -1.29475e-07)
(2.54739e-05 -2.92583e-06 -1.17476e-07)
(2.48683e-05 -2.92963e-06 -1.99001e-07)
(2.55913e-05 -2.92635e-06 -2.96226e-07)
(2.61317e-05 -2.92781e-06 -2.86446e-07)
(2.41862e-05 -2.88729e-06 -2.19114e-07)