/*--------------------------------*- C++ -*----------------------------------*\
| =========                 |                                                 |
| \\      /  F ield         | OpenFOAM: The Open Source CFD Toolbox           |
|  \\    /   O peration     | Version:  2306                                  |
|   \\  /    A nd           | Website:  www.openfoam.com                      |
|    \\/     M anipulation  |                                                 |
\*---------------------------------------------------------------------------*/
// * * * * * * * * * * * * * * * * * * * * * * * * * * * * * * * * * * * * * //
FoamFile
{
    version         2;
    format          ascii;
    class           volSymmTensorField;
    location        "0";
    object          S;
}

dimensions      [ 0 0 -1 0 0 0 0 ];

internalField   nonuniform List<symmTensor> 
3
(
(1.100000 0.950000 1.020000 0.980000 1.010000 0.990000)
(0.980000 1.050000 0.970000 1.030000 0.990000 1.020000)
(1.040000 0.960000 1.010000 0.950000 1.030000 0.980000)
)
;

// ************************************************************************* // 