FoamFile
{
    version     2.0;
    format      ascii;
    class       volSymmTensorField;
    location    "0";
    object      TinyS;
}

dimensions      [0 0 -1 0 0 0 0];

internalField   nonuniform List<SymmTensorField> 
5
(
(1.910183708 1.814963717 -1.410976512 1.667717333 1.666726512 -1.760487987)
(-0.017560161 -1.217458438 1.131138520 0.131869362 -0.115050637 1.592316933)
(1.476792196 -0.096022779 0.032142139 -1.833062843 0.312032607 -0.943485097)
(1.549459169 -0.043703505 0.016074372 0.561325059 0.368947337 -0.140327742)
(0.844913883 -0.509550808 0.630036682 0.658533238 1.315658844 0.123124911)
)


