FoamFile
{
    version     2.0;
    format      ascii;
    class       volSymmTensorField;
    location    "0";
    object      Rrans;
}

dimensions      [0 2 -2 0 0 0 0];

internalField   nonuniform List<SymmTensorField> 
14751
(
(2.87656e-05 2.62131e-05 0 2.87909e-05 0 2.87777e-05)
(2.85028e-05 2.60242e-05 0 2.85302e-05 0 2.85157e-05)
(2.82513e-05 2.58456e-05 0 2.82775e-05 0 2.82640e-05)
(2.80182e-05 2.57022e-05 0 2.80521e-05 0 2.80335e-05)
(2.77457e-05 2.55300e-05 0 2.77823e-05 0 2.77626e-05)
(2.74879e-05 2.53730e-05 0 2.75261e-05 0 2.75052e-05)
(2.72215e-05 2.52169e-05 0 2.72628e-05 0 2.72401e-05)
(2.69575e-05 2.50654e-05 0 2.69998e-05 0 2.69765e-05)
(2.67008e-05 2.49251e-05 0 2.67450e-05 0 2.67204e-05)
(2.64468e-05 2.47906e-05 0 2.64919e-05 0 2.64669e-05)
(2.62022e-05 2.46678e-05 0 2.62483e-05 0 2.62225e-05)
(2.59639e-05 2.45518e-05 0 2.60099e-05 0 2.59842e-05)
(2.57400e-05 2.44509e-05 0 2.57864e-05 0 2.57602e-05)
(2.55236e-05 2.43579e-05 0 2.55698e-05 0 2.55438e-05)
(2.53209e-05 2.42784e-05 0 2.53671e-05 0 2.53409e-05)
(2.51272e-05 2.42066e-05 0 2.51725e-05 0 2.51469e-05)
(2.49491e-05 2.41484e-05 0 2.49937e-05 0 2.49683e-05)
(2.47820e-05 2.40995e-05 0 2.48256e-05 0 2.48008e-05)
(2.46292e-05 2.40621e-05 0 2.46716e-05 0 2.46474e-05)
(2.44887e-05 2.40344e-05 0 2.45297e-05 0 2.45062e-05)
(2.43617e-05 2.40168e-05 0 2.44012e-05 0 2.43785e-05)
(2.42482e-05 2.40090e-05 0 2.42860e-05 0 2.42642e-05)
(2.41476e-05 2.40104e-05 0 2.41837e-05 0 2.41629e-05)
(2.40600e-05 2.40205e-05 0 2.40942e-05 0 2.40744e-05)
(2.39851e-05 2.40389e-05 0 2.40175e-05 0 2.39987e-05)
(2.39223e-05 2.40647e-05 0 2.39527e-05 0 2.39350e-05)
(2.38715e-05 2.40980e-05 0 2.38999e-05 0 2.38832e-05)
(2.38320e-05 2.41374e-05 0 2.38582e-05 0 2.38428e-05)
(2.38038e-05 2.41833e-05 0 2.38280e-05 0 2.38137e-05)
(2.37862e-05 2.42346e-05 0 2.38083e-05 0 2.37952e-05)
(2.37790e-05 2.42911e-05 0 2.37989e-05 0 2.37870e-05)
(2.37815e-05 2.43521e-05 0 2.37993e-05 0 2.37886e-05)
(2.37940e-05 2.44179e-05 0 2.38096e-05 0 2.38001e-05)
(2.38156e-05 2.44875e-05 0 2.38291e-05 0 2.38208e-05)
(2.38463e-05 2.45609e-05 0 2.38577e-05 0 2.38506e-05)
(2.38855e-05 2.46374e-05 0 2.38948e-05 0 2.38889e-05)
(2.39327e-05 2.47164e-05 0 2.39399e-05 0 2.39352e-05)
(2.39872e-05 2.47972e-05 0 2.39923e-05 0 2.39887e-05)
(2.40487e-05 2.48794e-05 0 2.40518e-05 0 2.40493e-05)
(2.41173e-05 2.49636e-05 0 2.41183e-05 0 2.41170e-05)
(2.41930e-05 2.50498e-05 0 2.41920e-05 0 2.41919e-05)
(2.42760e-05 2.51385e-05 0 2.42731e-05 0 2.42741e-05)
(2.43665e-05 2.52291e-05 0 2.43615e-05 0 2.43636e-05)
(2.44638e-05 2.53218e-05 0 2.44569e-05 0 2.44601e-05)
(2.45667e-05 2.54143e-05 0 2.45580e-05 0 2.45623e-05)
(2.46741e-05 2.55057e-05 0 2.46637e-05 0 2.46690e-05)
(2.47851e-05 2.55952e-05 0 2.47730e-05 0 2.47793e-05)
(2.48998e-05 2.56832e-05 0 2.48859e-05 0 2.48932e-05)
(2.50190e-05 2.57710e-05 0 2.50032e-05 0 2.50116e-05)
(2.51447e-05 2.58611e-05 0 2.51272e-05 0 2.51365e-05)
(2.52783e-05 2.59551e-05 0 2.52589e-05 0 2.52693e-05)
(2.54198e-05 2.60525e-05 0 2.53987e-05 0 2.54101e-05)
(2.55675e-05 2.61508e-05 0 2.55447e-05 0 2.55570e-05)
(2.57172e-05 2.62452e-05 0 2.56931e-05 0 2.57063e-05)
(2.58652e-05 2.63315e-05 0 2.58399e-05 0 2.58538e-05)
(2.60097e-05 2.64086e-05 0 2.59831e-05 0 2.59978e-05)
(2.61533e-05 2.64809e-05 0 2.61253e-05 0 2.61408e-05)
(2.63032e-05 2.65574e-05 0 2.62734e-05 0 2.62898e-05)
(2.64660e-05 2.66455e-05 0 2.64344e-05 0 2.64518e-05)
(2.66431e-05 2.67450e-05 0 2.66098e-05 0 2.66281e-05)
(2.68270e-05 2.68460e-05 0 2.67927e-05 0 2.68116e-05)
(2.70063e-05 2.69349e-05 0 2.69714e-05 0 2.69908e-05)
(2.71725e-05 2.70039e-05 0 2.71371e-05 0 2.71569e-05)
(2.73277e-05 2.70580e-05 0 2.72916e-05 0 2.73119e-05)
(2.74830e-05 2.71117e-05 0 2.74456e-05 0 2.74666e-05)
(2.76504e-05 2.71786e-05 0 2.76116e-05 0 2.76332e-05)
(2.78333e-05 2.72605e-05 0 2.77932e-05 0 2.78155e-05)
(2.80247e-05 2.73475e-05 0 2.79838e-05 0 2.80065e-05)
(2.82125e-05 2.74262e-05 0 2.81714e-05 0 2.81943e-05)
(2.83888e-05 2.74892e-05 0 2.83478e-05 0 2.83708e-05)
(2.85542e-05 2.75390e-05 0 2.85131e-05 0 2.85362e-05)
(2.87146e-05 2.75839e-05 0 2.86732e-05 0 2.86965e-05)
(2.88759e-05 2.76309e-05 0 2.88343e-05 0 2.88576e-05)
(2.90389e-05 2.76801e-05 0 2.89971e-05 0 2.90206e-05)
(2.92009e-05 2.77287e-05 0 2.91593e-05 0 2.91826e-05)
(2.93583e-05 2.77725e-05 0 2.93170e-05 0 2.93403e-05)
(2.95084e-05 2.78099e-05 0 2.94678e-05 0 2.94907e-05)
(2.96495e-05 2.78397e-05 0 2.96096e-05 0 2.96321e-05)
(2.97813e-05 2.78629e-05 0 2.97425e-05 0 2.97644e-05)
(2.99028e-05 2.78785e-05 0 2.98650e-05 0 2.98864e-05)
(3.00142e-05 2.78878e-05 0 2.99778e-05 0 2.99985e-05)
(3.01134e-05 2.78894e-05 0 3.00785e-05 0 3.00984e-05)
(3.02004e-05 2.78831e-05 0 3.01670e-05 0 3.01862e-05)
(3.02755e-05 2.78707e-05 0 3.02441e-05 0 3.02622e-05)
(3.03340e-05 2.78486e-05 0 3.03049e-05 0 3.03217e-05)
(3.03795e-05 2.78199e-05 0 3.03527e-05 0 3.03684e-05)
(3.04047e-05 2.77798e-05 0 3.03810e-05 0 3.03949e-05)
(3.04141e-05 2.77306e-05 0 3.03925e-05 0 3.04055e-05)
(3.04053e-05 2.76745e-05 0 3.03880e-05 0 3.03984e-05)
(3.03709e-05 2.76022e-05 0 3.03563e-05 0 3.03655e-05)
(3.03208e-05 2.75248e-05 0 3.03105e-05 0 3.03172e-05)
(3.02399e-05 2.74282e-05 0 3.02333e-05 0 3.02380e-05)
(3.01421e-05 2.73243e-05 0 3.01393e-05 0 3.01420e-05)
(3.00181e-05 2.72072e-05 0 3.00198e-05 0 3.00199e-05)
(2.98731e-05 2.70815e-05 0 2.98795e-05 0 2.98772e-05)
(2.96866e-05 2.69291e-05 0 2.96990e-05 0 2.96930e-05)
(2.94768e-05 2.67558e-05 0 2.94896e-05 0 2.94840e-05)
(2.92614e-05 2.65878e-05 0 2.92794e-05 0 2.92702e-05)
(2.90180e-05 2.64009e-05 0 2.90384e-05 0 2.90284e-05)
(2.62769e-05 1.02096e-05 0 2.63157e-05 0 2.62966e-05)
(2.60674e-05 1.01507e-05 0 2.61079e-05 0 2.60881e-05)
(2.58611e-05 1.00857e-05 0 2.59030e-05 0 2.58831e-05)
(2.56679e-05 1.00271e-05 0 2.57190e-05 0 2.56945e-05)
(2.54542e-05 9.96134e-06 0 2.55109e-05 0 2.54843e-05)
(2.52485e-05 9.89406e-06 0 2.53076e-05 0 2.52799e-05)
(2.50395e-05 9.82654e-06 0 2.51029e-05 0 2.50734e-05)
(2.48331e-05 9.75747e-06 0 2.48986e-05 0 2.48683e-05)
(2.46327e-05 9.68938e-06 0 2.47009e-05 0 2.46694e-05)
(2.44362e-05 9.62131e-06 0 2.45060e-05 0 2.44740e-05)
(2.42476e-05 9.55475e-06 0 2.43188e-05 0 2.42862e-05)
(2.40651e-05 9.48900e-06 0 2.41369e-05 0 2.41042e-05)
(2.38936e-05 9.42550e-06 0 2.39660e-05 0 2.39330e-05)
(2.37293e-05 9.36349e-06 0 2.38018e-05 0 2.37689e-05)
(2.35759e-05 9.30413e-06 0 2.36484e-05 0 2.36155e-05)
(2.34306e-05 9.24659e-06 0 2.35023e-05 0 2.34699e-05)
(2.32975e-05 9.19196e-06 0 2.33680e-05 0 2.33362e-05)
(2.31737e-05 9.13998e-06 0 2.32429e-05 0 2.32118e-05)
(2.30612e-05 9.09094e-06 0 2.31286e-05 0 2.30984e-05)
(2.29590e-05 9.04494e-06 0 2.30243e-05 0 2.29951e-05)
(2.28676e-05 9.00196e-06 0 2.29306e-05 0 2.29024e-05)
(2.27868e-05 8.96222e-06 0 2.28473e-05 0 2.28204e-05)
(2.27166e-05 8.92563e-06 0 2.27744e-05 0 2.27488e-05)
(2.26568e-05 8.89221e-06 0 2.27117e-05 0 2.26874e-05)
(2.26071e-05 8.86198e-06 0 2.26590e-05 0 2.26361e-05)
(2.25671e-05 8.83490e-06 0 2.26159e-05 0 2.25944e-05)
(2.25366e-05 8.81098e-06 0 2.25823e-05 0 2.25623e-05)
(2.25153e-05 8.79009e-06 0 2.25576e-05 0 2.25391e-05)
(2.25029e-05 8.77232e-06 0 2.25419e-05 0 2.25250e-05)
(2.24990e-05 8.75751e-06 0 2.25347e-05 0 2.25193e-05)
(2.25033e-05 8.74562e-06 0 2.25357e-05 0 2.25218e-05)
(2.25156e-05 8.73660e-06 0 2.25445e-05 0 2.25322e-05)
(2.25356e-05 8.73046e-06 0 2.25612e-05 0 2.25504e-05)
(2.25630e-05 8.72713e-06 0 2.25852e-05 0 2.25760e-05)
(2.25977e-05 8.72648e-06 0 2.26165e-05 0 2.26088e-05)
(2.26390e-05 8.72846e-06 0 2.26545e-05 0 2.26483e-05)
(2.26868e-05 8.73304e-06 0 2.26990e-05 0 2.26943e-05)
(2.27403e-05 8.73998e-06 0 2.27493e-05 0 2.27460e-05)
(2.27994e-05 8.74932e-06 0 2.28052e-05 0 2.28034e-05)
(2.28639e-05 8.76087e-06 0 2.28665e-05 0 2.28661e-05)
(2.29340e-05 8.77470e-06 0 2.29335e-05 0 2.29345e-05)
(2.30099e-05 8.79096e-06 0 2.30062e-05 0 2.30086e-05)
(2.30914e-05 8.80952e-06 0 2.30846e-05 0 2.30884e-05)
(2.31782e-05 8.83035e-06 0 2.31685e-05 0 2.31736e-05)
(2.32696e-05 8.85323e-06 0 2.32570e-05 0 2.32634e-05)
(2.33645e-05 8.87792e-06 0 2.33491e-05 0 2.33568e-05)
(2.34622e-05 8.90426e-06 0 2.34440e-05 0 2.34528e-05)
(2.35625e-05 8.93223e-06 0 2.35415e-05 0 2.35516e-05)
(2.36659e-05 8.96203e-06 0 2.36422e-05 0 2.36535e-05)
(2.37739e-05 8.99390e-06 0 2.37473e-05 0 2.37600e-05)
(2.38876e-05 9.02804e-06 0 2.38581e-05 0 2.38721e-05)
(2.40071e-05 9.06445e-06 0 2.39749e-05 0 2.39901e-05)
(2.41314e-05 9.10274e-06 0 2.40967e-05 0 2.41129e-05)
(2.42574e-05 9.14233e-06 0 2.42205e-05 0 2.42377e-05)
(2.43822e-05 9.18243e-06 0 2.43432e-05 0 2.43612e-05)
(2.45038e-05 9.22284e-06 0 2.44627e-05 0 2.44817e-05)
(2.46239e-05 9.26398e-06 0 2.45804e-05 0 2.46004e-05)
(2.47473e-05 9.30693e-06 0 2.47012e-05 0 2.47225e-05)
(2.48794e-05 9.35276e-06 0 2.48305e-05 0 2.48531e-05)
(2.50216e-05 9.40151e-06 0 2.49702e-05 0 2.49940e-05)
(2.51694e-05 9.45208e-06 0 2.51162e-05 0 2.51407e-05)
(2.53141e-05 9.50236e-06 0 2.52596e-05 0 2.52846e-05)
(2.54490e-05 9.55107e-06 0 2.53934e-05 0 2.54187e-05)
(2.55743e-05 9.59855e-06 0 2.55173e-05 0 2.55432e-05)
(2.56975e-05 9.64651e-06 0 2.56387e-05 0 2.56654e-05)
(2.58276e-05 9.69682e-06 0 2.57667e-05 0 2.57945e-05)
(2.59681e-05 9.74994e-06 0 2.59053e-05 0 2.59340e-05)
(2.61146e-05 9.80454e-06 0 2.60505e-05 0 2.60799e-05)
(2.62586e-05 9.85861e-06 0 2.61939e-05 0 2.62234e-05)
(2.63937e-05 9.91091e-06 0 2.63287e-05 0 2.63582e-05)
(2.65193e-05 9.96147e-06 0 2.64540e-05 0 2.64836e-05)
(2.66395e-05 1.00111e-05 0 2.65737e-05 0 2.66036e-05)
(2.67584e-05 1.00607e-05 0 2.66922e-05 0 2.67222e-05)
(2.68771e-05 1.01104e-05 0 2.68107e-05 0 2.68408e-05)
(2.69938e-05 1.01594e-05 0 2.69276e-05 0 2.69576e-05)
(2.71059e-05 1.02071e-05 0 2.70402e-05 0 2.70700e-05)
(2.72115e-05 1.02530e-05 0 2.71468e-05 0 2.71761e-05)
(2.73091e-05 1.02968e-05 0 2.72455e-05 0 2.72742e-05)
(2.73984e-05 1.03382e-05 0 2.73363e-05 0 2.73643e-05)
(2.74787e-05 1.03770e-05 0 2.74184e-05 0 2.74455e-05)
(2.75500e-05 1.04131e-05 0 2.74918e-05 0 2.75179e-05)
(2.76110e-05 1.04461e-05 0 2.75553e-05 0 2.75802e-05)
(2.76617e-05 1.04755e-05 0 2.76085e-05 0 2.76322e-05)
(2.77021e-05 1.05017e-05 0 2.76521e-05 0 2.76743e-05)
(2.77299e-05 1.05241e-05 0 2.76834e-05 0 2.77039e-05)
(2.77461e-05 1.05419e-05 0 2.77037e-05 0 2.77224e-05)
(2.77478e-05 1.05559e-05 0 2.77101e-05 0 2.77264e-05)
(2.77359e-05 1.05637e-05 0 2.77024e-05 0 2.77169e-05)
(2.77107e-05 1.05686e-05 0 2.76834e-05 0 2.76948e-05)
(2.76665e-05 1.05656e-05 0 2.76443e-05 0 2.76535e-05)
(2.76094e-05 1.05584e-05 0 2.75936e-05 0 2.75996e-05)
(2.75308e-05 1.05440e-05 0 2.75211e-05 0 2.75244e-05)
(2.74380e-05 1.05237e-05 0 2.74342e-05 0 2.74348e-05)
(2.73270e-05 1.04977e-05 0 2.73299e-05 0 2.73273e-05)
(2.71988e-05 1.04656e-05 0 2.72092e-05 0 2.72034e-05)
(2.70440e-05 1.04274e-05 0 2.70620e-05 0 2.70522e-05)
(2.68693e-05 1.03788e-05 0 2.68899e-05 0 2.68794e-05)
(2.66882e-05 1.03291e-05 0 2.67150e-05 0 2.67012e-05)
(2.64879e-05 1.02729e-05 0 2.65193e-05 0 2.65038e-05)
(2.48799e-05 1.03408e-05 0 2.49420e-05 0 2.49111e-05)
(2.46979e-05 1.02804e-05 0 2.47610e-05 0 2.47293e-05)
(2.45115e-05 1.02093e-05 0 2.45823e-05 0 2.45474e-05)
(2.43374e-05 1.01474e-05 0 2.44212e-05 0 2.43790e-05)
(2.41539e-05 1.00834e-05 0 2.42483e-05 0 2.42013e-05)
(2.39751e-05 1.00156e-05 0 2.40751e-05 0 2.40252e-05)
(2.37968e-05 9.94980e-06 0 2.39044e-05 0 2.38506e-05)
(2.36213e-05 9.88258e-06 0 2.37341e-05 0 2.36779e-05)
(2.34521e-05 9.81733e-06 0 2.35699e-05 0 2.35110e-05)
(2.32878e-05 9.75279e-06 0 2.34096e-05 0 2.33488e-05)
(2.31312e-05 9.69031e-06 0 2.32560e-05 0 2.31936e-05)
(2.29811e-05 9.62920e-06 0 2.31079e-05 0 2.30446e-05)
(2.28406e-05 9.57061e-06 0 2.29689e-05 0 2.29047e-05)
(2.27074e-05 9.51401e-06 0 2.28368e-05 0 2.27722e-05)
(2.25841e-05 9.46037e-06 0 2.27138e-05 0 2.26489e-05)
(2.24689e-05 9.40909e-06 0 2.25979e-05 0 2.25334e-05)
(2.23639e-05 9.36054e-06 0 2.24915e-05 0 2.24276e-05)
(2.22679e-05 9.31513e-06 0 2.23936e-05 0 2.23307e-05)
(2.21817e-05 9.27262e-06 0 2.23047e-05 0 2.22431e-05)
(2.21047e-05 9.23334e-06 0 2.22246e-05 0 2.21645e-05)
(2.20371e-05 9.19700e-06 0 2.21532e-05 0 2.20951e-05)
(2.19789e-05 9.16383e-06 0 2.20910e-05 0 2.20348e-05)
(2.19297e-05 9.13395e-06 0 2.20373e-05 0 2.19834e-05)
(2.18895e-05 9.10712e-06 0 2.19923e-05 0 2.19408e-05)
(2.18580e-05 9.08356e-06 0 2.19558e-05 0 2.19068e-05)
(2.18349e-05 9.06295e-06 0 2.19273e-05 0 2.18810e-05)
(2.18200e-05 9.04554e-06 0 2.19069e-05 0 2.18633e-05)
(2.18129e-05 9.03101e-06 0 2.18940e-05 0 2.18533e-05)
(2.18134e-05 9.01947e-06 0 2.18887e-05 0 2.18509e-05)
(2.18211e-05 9.01083e-06 0 2.18905e-05 0 2.18556e-05)
(2.18357e-05 9.00500e-06 0 2.18992e-05 0 2.18673e-05)
(2.18572e-05 9.00196e-06 0 2.19145e-05 0 2.18857e-05)
(2.18851e-05 9.00168e-06 0 2.19363e-05 0 2.19106e-05)
(2.19193e-05 9.00406e-06 0 2.19644e-05 0 2.19417e-05)
(2.19595e-05 9.00910e-06 0 2.19986e-05 0 2.19789e-05)
(2.20054e-05 9.01663e-06 0 2.20384e-05 0 2.20218e-05)
(2.20566e-05 9.02664e-06 0 2.20836e-05 0 2.20700e-05)
(2.21128e-05 9.03892e-06 0 2.21338e-05 0 2.21232e-05)
(2.21735e-05 9.05328e-06 0 2.21886e-05 0 2.21809e-05)
(2.22387e-05 9.06979e-06 0 2.22480e-05 0 2.22433e-05)
(2.23085e-05 9.08848e-06 0 2.23120e-05 0 2.23101e-05)
(2.23830e-05 9.10947e-06 0 2.23807e-05 0 2.23817e-05)
(2.24621e-05 9.13264e-06 0 2.24541e-05 0 2.24580e-05)
(2.25456e-05 9.15806e-06 0 2.25321e-05 0 2.25388e-05)
(2.26329e-05 9.18537e-06 0 2.26138e-05 0 2.26233e-05)
(2.27231e-05 9.21444e-06 0 2.26987e-05 0 2.27108e-05)
(2.28156e-05 9.24500e-06 0 2.27859e-05 0 2.28007e-05)
(2.29102e-05 9.27707e-06 0 2.28752e-05 0 2.28927e-05)
(2.30070e-05 9.31082e-06 0 2.29668e-05 0 2.29869e-05)
(2.31072e-05 9.34645e-06 0 2.30618e-05 0 2.30845e-05)
(2.32116e-05 9.38419e-06 0 2.31611e-05 0 2.31864e-05)
(2.33203e-05 9.42398e-06 0 2.32649e-05 0 2.32926e-05)
(2.34329e-05 9.46557e-06 0 2.33726e-05 0 2.34028e-05)
(2.35471e-05 9.50832e-06 0 2.34821e-05 0 2.35146e-05)
(2.36604e-05 9.55145e-06 0 2.35909e-05 0 2.36257e-05)
(2.37710e-05 9.59464e-06 0 2.36972e-05 0 2.37342e-05)
(2.38797e-05 9.63821e-06 0 2.38015e-05 0 2.38407e-05)
(2.39898e-05 9.68327e-06 0 2.39073e-05 0 2.39487e-05)
(2.41055e-05 9.73080e-06 0 2.40186e-05 0 2.40622e-05)
(2.42285e-05 9.78107e-06 0 2.41374e-05 0 2.41831e-05)
(2.43559e-05 9.83277e-06 0 2.42610e-05 0 2.43086e-05)
(2.44814e-05 9.88397e-06 0 2.43831e-05 0 2.44324e-05)
(2.45994e-05 9.93333e-06 0 2.44979e-05 0 2.45488e-05)
(2.47089e-05 9.98108e-06 0 2.46044e-05 0 2.46569e-05)
(2.48150e-05 1.00289e-05 0 2.47076e-05 0 2.47615e-05)
(2.49244e-05 1.00784e-05 0 2.48141e-05 0 2.48694e-05)
(2.50402e-05 1.01300e-05 0 2.49273e-05 0 2.49839e-05)
(2.51603e-05 1.01828e-05 0 2.50450e-05 0 2.51029e-05)
(2.52783e-05 1.02348e-05 0 2.51612e-05 0 2.52199e-05)
(2.53890e-05 1.02844e-05 0 2.52706e-05 0 2.53300e-05)
(2.54913e-05 1.03318e-05 0 2.53719e-05 0 2.54318e-05)
(2.55878e-05 1.03779e-05 0 2.54677e-05 0 2.55280e-05)
(2.56813e-05 1.04230e-05 0 2.55608e-05 0 2.56213e-05)
(2.57730e-05 1.04677e-05 0 2.56525e-05 0 2.57130e-05)
(2.58619e-05 1.05113e-05 0 2.57417e-05 0 2.58020e-05)
(2.59458e-05 1.05528e-05 0 2.58265e-05 0 2.58864e-05)
(2.60234e-05 1.05923e-05 0 2.59056e-05 0 2.59647e-05)
(2.60933e-05 1.06287e-05 0 2.59776e-05 0 2.60357e-05)
(2.61554e-05 1.06627e-05 0 2.60422e-05 0 2.60990e-05)
(2.62088e-05 1.06932e-05 0 2.60988e-05 0 2.61540e-05)
(2.62537e-05 1.07204e-05 0 2.61474e-05 0 2.62007e-05)
(2.62891e-05 1.07442e-05 0 2.61871e-05 0 2.62383e-05)
(2.63150e-05 1.07638e-05 0 2.62176e-05 0 2.62664e-05)
(2.63313e-05 1.07799e-05 0 2.62394e-05 0 2.62855e-05)
(2.63369e-05 1.07921e-05 0 2.62513e-05 0 2.62942e-05)
(2.63318e-05 1.07990e-05 0 2.62533e-05 0 2.62927e-05)
(2.63151e-05 1.08021e-05 0 2.62445e-05 0 2.62798e-05)
(2.62860e-05 1.07983e-05 0 2.62234e-05 0 2.62549e-05)
(2.62463e-05 1.07921e-05 0 2.61936e-05 0 2.62199e-05)
(2.61915e-05 1.07784e-05 0 2.61484e-05 0 2.61701e-05)
(2.61256e-05 1.07599e-05 0 2.60930e-05 0 2.61092e-05)
(2.60436e-05 1.07358e-05 0 2.60216e-05 0 2.60326e-05)
(2.59490e-05 1.07049e-05 0 2.59374e-05 0 2.59432e-05)
(2.58406e-05 1.06700e-05 0 2.58405e-05 0 2.58405e-05)
(2.57178e-05 1.06294e-05 0 2.57300e-05 0 2.57241e-05)
(2.55772e-05 1.05858e-05 0 2.56007e-05 0 2.55886e-05)
(2.54184e-05 1.05298e-05 0 2.54483e-05 0 2.54337e-05)
(2.52526e-05 1.04731e-05 0 2.52923e-05 0 2.52721e-05)
(2.50727e-05 1.04115e-05 0 2.51207e-05 0 2.50970e-05)
(2.39845e-05 1.03863e-05 0 2.40766e-05 0 2.40305e-05)
(2.38188e-05 1.03233e-05 0 2.39100e-05 0 2.38642e-05)
(2.36426e-05 1.02483e-05 0 2.37503e-05 0 2.36969e-05)
(2.34818e-05 1.01844e-05 0 2.36032e-05 0 2.35420e-05)
(2.33166e-05 1.01220e-05 0 2.34541e-05 0 2.33854e-05)
(2.31554e-05 1.00549e-05 0 2.33021e-05 0 2.32287e-05)
(2.29976e-05 9.99150e-06 0 2.31547e-05 0 2.30760e-05)
(2.28433e-05 9.92741e-06 0 2.30088e-05 0 2.29260e-05)
(2.26960e-05 9.86550e-06 0 2.28685e-05 0 2.27820e-05)
(2.25544e-05 9.80518e-06 0 2.27333e-05 0 2.26438e-05)
(2.24211e-05 9.74786e-06 0 2.26043e-05 0 2.25124e-05)
(2.22947e-05 9.69188e-06 0 2.24814e-05 0 2.23879e-05)
(2.21775e-05 9.63897e-06 0 2.23665e-05 0 2.22717e-05)
(2.20680e-05 9.58884e-06 0 2.22589e-05 0 2.21633e-05)
(2.19680e-05 9.54168e-06 0 2.21592e-05 0 2.20633e-05)
(2.18762e-05 9.49768e-06 0 2.20667e-05 0 2.19713e-05)
(2.17939e-05 9.45629e-06 0 2.19824e-05 0 2.18879e-05)
(2.17203e-05 9.41848e-06 0 2.19062e-05 0 2.18130e-05)
(2.16556e-05 9.38353e-06 0 2.18377e-05 0 2.17464e-05)
(2.15997e-05 9.35190e-06 0 2.17773e-05 0 2.16882e-05)
(2.15524e-05 9.32361e-06 0 2.17246e-05 0 2.16382e-05)
(2.15135e-05 9.29813e-06 0 2.16799e-05 0 2.15964e-05)
(2.14829e-05 9.27617e-06 0 2.16427e-05 0 2.15626e-05)
(2.14604e-05 9.25700e-06 0 2.16131e-05 0 2.15365e-05)
(2.14456e-05 9.24136e-06 0 2.15909e-05 0 2.15180e-05)
(2.14384e-05 9.22845e-06 0 2.15758e-05 0 2.15068e-05)
(2.14383e-05 9.21837e-06 0 2.15676e-05 0 2.15027e-05)
(2.14452e-05 9.21122e-06 0 2.15659e-05 0 2.15053e-05)
(2.14587e-05 9.20712e-06 0 2.15708e-05 0 2.15145e-05)
(2.14786e-05 9.20554e-06 0 2.15818e-05 0 2.15300e-05)
(2.15045e-05 9.20692e-06 0 2.15988e-05 0 2.15515e-05)
(2.15363e-05 9.21078e-06 0 2.16215e-05 0 2.15787e-05)
(2.15738e-05 9.21723e-06 0 2.16498e-05 0 2.16116e-05)
(2.16165e-05 9.22620e-06 0 2.16835e-05 0 2.16498e-05)
(2.16645e-05 9.23763e-06 0 2.17223e-05 0 2.16932e-05)
(2.17173e-05 9.25134e-06 0 2.17660e-05 0 2.17415e-05)
(2.17746e-05 9.26722e-06 0 2.18143e-05 0 2.17943e-05)
(2.18362e-05 9.28535e-06 0 2.18668e-05 0 2.18514e-05)
(2.19016e-05 9.30504e-06 0 2.19234e-05 0 2.19124e-05)
(2.19708e-05 9.32677e-06 0 2.19839e-05 0 2.19773e-05)
(2.20439e-05 9.35077e-06 0 2.20482e-05 0 2.20460e-05)
(2.21207e-05 9.37694e-06 0 2.21164e-05 0 2.21185e-05)
(2.22014e-05 9.40499e-06 0 2.21885e-05 0 2.21949e-05)
(2.22858e-05 9.43505e-06 0 2.22645e-05 0 2.22751e-05)
(2.23733e-05 9.46699e-06 0 2.23437e-05 0 2.23585e-05)
(2.24632e-05 9.50023e-06 0 2.24254e-05 0 2.24443e-05)
(2.25550e-05 9.53500e-06 0 2.25091e-05 0 2.25321e-05)
(2.26484e-05 9.57118e-06 0 2.25946e-05 0 2.26215e-05)
(2.27434e-05 9.60860e-06 0 2.26818e-05 0 2.27126e-05)
(2.28407e-05 9.64774e-06 0 2.27713e-05 0 2.28061e-05)
(2.29411e-05 9.68866e-06 0 2.28641e-05 0 2.29027e-05)
(2.30449e-05 9.73144e-06 0 2.29604e-05 0 2.30027e-05)
(2.31514e-05 9.77570e-06 0 2.30596e-05 0 2.31056e-05)
(2.32593e-05 9.82077e-06 0 2.31604e-05 0 2.32099e-05)
(2.33663e-05 9.86624e-06 0 2.32605e-05 0 2.33136e-05)
(2.34709e-05 9.91130e-06 0 2.33584e-05 0 2.34148e-05)
(2.35731e-05 9.95630e-06 0 2.34541e-05 0 2.35138e-05)
(2.36757e-05 1.00027e-05 0 2.35502e-05 0 2.36131e-05)
(2.37814e-05 1.00508e-05 0 2.36498e-05 0 2.37158e-05)
(2.38923e-05 1.01012e-05 0 2.37546e-05 0 2.38236e-05)
(2.40062e-05 1.01528e-05 0 2.38628e-05 0 2.39347e-05)
(2.41185e-05 1.02037e-05 0 2.39697e-05 0 2.40443e-05)
(2.42245e-05 1.02523e-05 0 2.40708e-05 0 2.41479e-05)
(2.43230e-05 1.02988e-05 0 2.41647e-05 0 2.42441e-05)
(2.44170e-05 1.03447e-05 0 2.42546e-05 0 2.43360e-05)
(2.45117e-05 1.03916e-05 0 2.43456e-05 0 2.44289e-05)
(2.46102e-05 1.04404e-05 0 2.44404e-05 0 2.45256e-05)
(2.47108e-05 1.04896e-05 0 2.45378e-05 0 2.46246e-05)
(2.48092e-05 1.05374e-05 0 2.46336e-05 0 2.47216e-05)
(2.49010e-05 1.05828e-05 0 2.47234e-05 0 2.48125e-05)
(2.49849e-05 1.06252e-05 0 2.48060e-05 0 2.48957e-05)
(2.50626e-05 1.06653e-05 0 2.48828e-05 0 2.49730e-05)
(2.51359e-05 1.07046e-05 0 2.49560e-05 0 2.50463e-05)
(2.52061e-05 1.07425e-05 0 2.50265e-05 0 2.51166e-05)
(2.52724e-05 1.07788e-05 0 2.50937e-05 0 2.51833e-05)
(2.53332e-05 1.08126e-05 0 2.51561e-05 0 2.52449e-05)
(2.53874e-05 1.08437e-05 0 2.52128e-05 0 2.53004e-05)
(2.54339e-05 1.08717e-05 0 2.52627e-05 0 2.53486e-05)
(2.54725e-05 1.08962e-05 0 2.53054e-05 0 2.53892e-05)
(2.55024e-05 1.09173e-05 0 2.53403e-05 0 2.54217e-05)
(2.55238e-05 1.09346e-05 0 2.53676e-05 0 2.54460e-05)
(2.55362e-05 1.09483e-05 0 2.53867e-05 0 2.54617e-05)
(2.55393e-05 1.09572e-05 0 2.53971e-05 0 2.54684e-05)
(2.55331e-05 1.09615e-05 0 2.53994e-05 0 2.54665e-05)
(2.55174e-05 1.09620e-05 0 2.53933e-05 0 2.54555e-05)
(2.54916e-05 1.09570e-05 0 2.53784e-05 0 2.54353e-05)
(2.54563e-05 1.09487e-05 0 2.53547e-05 0 2.54056e-05)
(2.54095e-05 1.09329e-05 0 2.53204e-05 0 2.53653e-05)
(2.53544e-05 1.09153e-05 0 2.52791e-05 0 2.53167e-05)
(2.52866e-05 1.08909e-05 0 2.52258e-05 0 2.52565e-05)
(2.52094e-05 1.08629e-05 0 2.51635e-05 0 2.51865e-05)
(2.51196e-05 1.08298e-05 0 2.50892e-05 0 2.51045e-05)
(2.50189e-05 1.07900e-05 0 2.50039e-05 0 2.50115e-05)
(2.49076e-05 1.07478e-05 0 2.49088e-05 0 2.49082e-05)
(2.47843e-05 1.07004e-05 0 2.48027e-05 0 2.47937e-05)
(2.46488e-05 1.06523e-05 0 2.46820e-05 0 2.46650e-05)
(2.44961e-05 1.05902e-05 0 2.45411e-05 0 2.45190e-05)
(2.43374e-05 1.05279e-05 0 2.43955e-05 0 2.43661e-05)
(2.41679e-05 1.04622e-05 0 2.42384e-05 0 2.42034e-05)
(2.33212e-05 1.03592e-05 0 2.34502e-05 0 2.33857e-05)
(2.31671e-05 1.02935e-05 0 2.32931e-05 0 2.32298e-05)
(2.29973e-05 1.02158e-05 0 2.31500e-05 0 2.30742e-05)
(2.28480e-05 1.01518e-05 0 2.30143e-05 0 2.29307e-05)
(2.26958e-05 1.00914e-05 0 2.28839e-05 0 2.27901e-05)
(2.25486e-05 1.00264e-05 0 2.27501e-05 0 2.26493e-05)
(2.24069e-05 9.96600e-06 0 2.26216e-05 0 2.25141e-05)
(2.22694e-05 9.90558e-06 0 2.24960e-05 0 2.23828e-05)
(2.21400e-05 9.84764e-06 0 2.23759e-05 0 2.22579e-05)
(2.20172e-05 9.79254e-06 0 2.22619e-05 0 2.21397e-05)
(2.19035e-05 9.74031e-06 0 2.21539e-05 0 2.20286e-05)
(2.17969e-05 9.69046e-06 0 2.20526e-05 0 2.19249e-05)
(2.17000e-05 9.64362e-06 0 2.19585e-05 0 2.18291e-05)
(2.16108e-05 9.60041e-06 0 2.18721e-05 0 2.17415e-05)
(2.15313e-05 9.56051e-06 0 2.17929e-05 0 2.16620e-05)
(2.14601e-05 9.52353e-06 0 2.17208e-05 0 2.15905e-05)
(2.13981e-05 9.49018e-06 0 2.16561e-05 0 2.15270e-05)
(2.13444e-05 9.46023e-06 0 2.15989e-05 0 2.14717e-05)
(2.12996e-05 9.43338e-06 0 2.15489e-05 0 2.14242e-05)
(2.12630e-05 9.41013e-06 0 2.15061e-05 0 2.13845e-05)
(2.12344e-05 9.38990e-06 0 2.14702e-05 0 2.13523e-05)
(2.12138e-05 9.37273e-06 0 2.14415e-05 0 2.13277e-05)
(2.12009e-05 9.35914e-06 0 2.14196e-05 0 2.13102e-05)
(2.11954e-05 9.34821e-06 0 2.14044e-05 0 2.12998e-05)
(2.11970e-05 9.34039e-06 0 2.13956e-05 0 2.12962e-05)
(2.12053e-05 9.33541e-06 0 2.13931e-05 0 2.12992e-05)
(2.12202e-05 9.33359e-06 0 2.13966e-05 0 2.13084e-05)
(2.12413e-05 9.33417e-06 0 2.14059e-05 0 2.13236e-05)
(2.12683e-05 9.33747e-06 0 2.14209e-05 0 2.13446e-05)
(2.13009e-05 9.34358e-06 0 2.14412e-05 0 2.13711e-05)
(2.13389e-05 9.35202e-06 0 2.14667e-05 0 2.14028e-05)
(2.13819e-05 9.36315e-06 0 2.14972e-05 0 2.14395e-05)
(2.14299e-05 9.37650e-06 0 2.15324e-05 0 2.14811e-05)
(2.14824e-05 9.39231e-06 0 2.15723e-05 0 2.15273e-05)
(2.15394e-05 9.40991e-06 0 2.16165e-05 0 2.15779e-05)
(2.16005e-05 9.42967e-06 0 2.16650e-05 0 2.16327e-05)
(2.16655e-05 9.45139e-06 0 2.17173e-05 0 2.16914e-05)
(2.17339e-05 9.47502e-06 0 2.17733e-05 0 2.17536e-05)
(2.18057e-05 9.50041e-06 0 2.18328e-05 0 2.18193e-05)
(2.18808e-05 9.52766e-06 0 2.18955e-05 0 2.18881e-05)
(2.19589e-05 9.55657e-06 0 2.19614e-05 0 2.19601e-05)
(2.20401e-05 9.58766e-06 0 2.20305e-05 0 2.20353e-05)
(2.21244e-05 9.62022e-06 0 2.21030e-05 0 2.21137e-05)
(2.22118e-05 9.65483e-06 0 2.21785e-05 0 2.21951e-05)
(2.23016e-05 9.69110e-06 0 2.22567e-05 0 2.22791e-05)
(2.23933e-05 9.72823e-06 0 2.23370e-05 0 2.23651e-05)
(2.24864e-05 9.76665e-06 0 2.24187e-05 0 2.24525e-05)
(2.25805e-05 9.80628e-06 0 2.25017e-05 0 2.25411e-05)
(2.26756e-05 9.84682e-06 0 2.25860e-05 0 2.26308e-05)
(2.27723e-05 9.88853e-06 0 2.26718e-05 0 2.27221e-05)
(2.28709e-05 9.93222e-06 0 2.27600e-05 0 2.28155e-05)
(2.29720e-05 9.97699e-06 0 2.28506e-05 0 2.29113e-05)
(2.30749e-05 1.00232e-05 0 2.29434e-05 0 2.30092e-05)
(2.31787e-05 1.00701e-05 0 2.30372e-05 0 2.31079e-05)
(2.32813e-05 1.01164e-05 0 2.31302e-05 0 2.32057e-05)
(2.33813e-05 1.01625e-05 0 2.32209e-05 0 2.33012e-05)
(2.34787e-05 1.02079e-05 0 2.33094e-05 0 2.33941e-05)
(2.35753e-05 1.02539e-05 0 2.33972e-05 0 2.34863e-05)
(2.36733e-05 1.03017e-05 0 2.34870e-05 0 2.35802e-05)
(2.37746e-05 1.03511e-05 0 2.35801e-05 0 2.36774e-05)
(2.38778e-05 1.04015e-05 0 2.36754e-05 0 2.37766e-05)
(2.39789e-05 1.04506e-05 0 2.37692e-05 0 2.38741e-05)
(2.40742e-05 1.04969e-05 0 2.38577e-05 0 2.39660e-05)
(2.41624e-05 1.05407e-05 0 2.39399e-05 0 2.40511e-05)
(2.42454e-05 1.05831e-05 0 2.40175e-05 0 2.41315e-05)
(2.43272e-05 1.06261e-05 0 2.40945e-05 0 2.42109e-05)
(2.44105e-05 1.06707e-05 0 2.41732e-05 0 2.42919e-05)
(2.44941e-05 1.07147e-05 0 2.42528e-05 0 2.43735e-05)
(2.45748e-05 1.07568e-05 0 2.43303e-05 0 2.44525e-05)
(2.46491e-05 1.07960e-05 0 2.44022e-05 0 2.45257e-05)
(2.47156e-05 1.08321e-05 0 2.44673e-05 0 2.45915e-05)
(2.47754e-05 1.08655e-05 0 2.45264e-05 0 2.46510e-05)
(2.48300e-05 1.08975e-05 0 2.45812e-05 0 2.47056e-05)
(2.48800e-05 1.09277e-05 0 2.46323e-05 0 2.47562e-05)
(2.49252e-05 1.09552e-05 0 2.46793e-05 0 2.48023e-05)
(2.49642e-05 1.09804e-05 0 2.47212e-05 0 2.48428e-05)
(2.49963e-05 1.10019e-05 0 2.47572e-05 0 2.48767e-05)
(2.50204e-05 1.10208e-05 0 2.47866e-05 0 2.49036e-05)
(2.50364e-05 1.10354e-05 0 2.48088e-05 0 2.49226e-05)
(2.50438e-05 1.10464e-05 0 2.48237e-05 0 2.49338e-05)
(2.50426e-05 1.10532e-05 0 2.48312e-05 0 2.49369e-05)
(2.50325e-05 1.10556e-05 0 2.48309e-05 0 2.49317e-05)
(2.50133e-05 1.10529e-05 0 2.48228e-05 0 2.49181e-05)
(2.49856e-05 1.10453e-05 0 2.48075e-05 0 2.48966e-05)
(2.49492e-05 1.10338e-05 0 2.47846e-05 0 2.48669e-05)
(2.49036e-05 1.10171e-05 0 2.47544e-05 0 2.48291e-05)
(2.48503e-05 1.09982e-05 0 2.47169e-05 0 2.47834e-05)
(2.47864e-05 1.09722e-05 0 2.46711e-05 0 2.47289e-05)
(2.47163e-05 1.09451e-05 0 2.46190e-05 0 2.46675e-05)
(2.46353e-05 1.09119e-05 0 2.45583e-05 0 2.45970e-05)
(2.45470e-05 1.08760e-05 0 2.44896e-05 0 2.45182e-05)
(2.44484e-05 1.08356e-05 0 2.44122e-05 0 2.44304e-05)
(2.43407e-05 1.07896e-05 0 2.43254e-05 0 2.43331e-05)
(2.42251e-05 1.07417e-05 0 2.42312e-05 0 2.42280e-05)
(2.40996e-05 1.06898e-05 0 2.41281e-05 0 2.41141e-05)
(2.39659e-05 1.06385e-05 0 2.40130e-05 0 2.39890e-05)
(2.38158e-05 1.05724e-05 0 2.38812e-05 0 2.38490e-05)
(2.36616e-05 1.05065e-05 0 2.37435e-05 0 2.37021e-05)
(2.34985e-05 1.04378e-05 0 2.35976e-05 0 2.35483e-05)
(2.27679e-05 1.02772e-05 0 2.29407e-05 0 2.28543e-05)
(2.26236e-05 1.02095e-05 0 2.27917e-05 0 2.27073e-05)
(2.24596e-05 1.01303e-05 0 2.26651e-05 0 2.25630e-05)
(2.23215e-05 1.00684e-05 0 2.25402e-05 0 2.24304e-05)
(2.21800e-05 1.00104e-05 0 2.24265e-05 0 2.23035e-05)
(2.20451e-05 9.94816e-06 0 2.23094e-05 0 2.21773e-05)
(2.19175e-05 9.89172e-06 0 2.21982e-05 0 2.20578e-05)
(2.17948e-05 9.83486e-06 0 2.20912e-05 0 2.19432e-05)
(2.16816e-05 9.78201e-06 0 2.19896e-05 0 2.18355e-05)
(2.15755e-05 9.73227e-06 0 2.18950e-05 0 2.17354e-05)
(2.14797e-05 9.68587e-06 0 2.18061e-05 0 2.16428e-05)
(2.13910e-05 9.64280e-06 0 2.17245e-05 0 2.15579e-05)
(2.13125e-05 9.60286e-06 0 2.16495e-05 0 2.14809e-05)
(2.12420e-05 9.56634e-06 0 2.15825e-05 0 2.14124e-05)
(2.11815e-05 9.53396e-06 0 2.15219e-05 0 2.13516e-05)
(2.11291e-05 9.50457e-06 0 2.14686e-05 0 2.12990e-05)
(2.10860e-05 9.47931e-06 0 2.14216e-05 0 2.12538e-05)
(2.10511e-05 9.45712e-06 0 2.13819e-05 0 2.12166e-05)
(2.10247e-05 9.43882e-06 0 2.13486e-05 0 2.11867e-05)
(2.10063e-05 9.42399e-06 0 2.13220e-05 0 2.11642e-05)
(2.09955e-05 9.41171e-06 0 2.13017e-05 0 2.11486e-05)
(2.09922e-05 9.40312e-06 0 2.12876e-05 0 2.11400e-05)
(2.09963e-05 9.39739e-06 0 2.12797e-05 0 2.11380e-05)
(2.10070e-05 9.39492e-06 0 2.12777e-05 0 2.11424e-05)
(2.10244e-05 9.39503e-06 0 2.12814e-05 0 2.11530e-05)
(2.10480e-05 9.39783e-06 0 2.12906e-05 0 2.11694e-05)
(2.10776e-05 9.40398e-06 0 2.13051e-05 0 2.11913e-05)
(2.11126e-05 9.41241e-06 0 2.13246e-05 0 2.12186e-05)
(2.11530e-05 9.42353e-06 0 2.13490e-05 0 2.12510e-05)
(2.11983e-05 9.43686e-06 0 2.13781e-05 0 2.12882e-05)
(2.12484e-05 9.45229e-06 0 2.14116e-05 0 2.13300e-05)
(2.13028e-05 9.47013e-06 0 2.14493e-05 0 2.13761e-05)
(2.13614e-05 9.48994e-06 0 2.14911e-05 0 2.14263e-05)
(2.14240e-05 9.51206e-06 0 2.15370e-05 0 2.14805e-05)
(2.14903e-05 9.53554e-06 0 2.15865e-05 0 2.15384e-05)
(2.15601e-05 9.56110e-06 0 2.16395e-05 0 2.15998e-05)
(2.16331e-05 9.58830e-06 0 2.16958e-05 0 2.16645e-05)
(2.17091e-05 9.61739e-06 0 2.17553e-05 0 2.17322e-05)
(2.17879e-05 9.64797e-06 0 2.18177e-05 0 2.18028e-05)
(2.18692e-05 9.68077e-06 0 2.18826e-05 0 2.18760e-05)
(2.19530e-05 9.71429e-06 0 2.19502e-05 0 2.19516e-05)
(2.20392e-05 9.74980e-06 0 2.20204e-05 0 2.20298e-05)
(2.21278e-05 9.78651e-06 0 2.20933e-05 0 2.21106e-05)
(2.22187e-05 9.82516e-06 0 2.21684e-05 0 2.21935e-05)
(2.23113e-05 9.86483e-06 0 2.22457e-05 0 2.22785e-05)
(2.24052e-05 9.90564e-06 0 2.23245e-05 0 2.23649e-05)
(2.25001e-05 9.94700e-06 0 2.24043e-05 0 2.24522e-05)
(2.25954e-05 9.98934e-06 0 2.24849e-05 0 2.25401e-05)
(2.26910e-05 1.00321e-05 0 2.25662e-05 0 2.26286e-05)
(2.27874e-05 1.00759e-05 0 2.26484e-05 0 2.27179e-05)
(2.28848e-05 1.01211e-05 0 2.27320e-05 0 2.28084e-05)
(2.29837e-05 1.01671e-05 0 2.28173e-05 0 2.29005e-05)
(2.30836e-05 1.02144e-05 0 2.29039e-05 0 2.29937e-05)
(2.31836e-05 1.02620e-05 0 2.29908e-05 0 2.30872e-05)
(2.32819e-05 1.03084e-05 0 2.30765e-05 0 2.31792e-05)
(2.33775e-05 1.03542e-05 0 2.31599e-05 0 2.32686e-05)