FoamFile
{
    version     2.0;
    format      ascii;
    class       volSymmTensorField;
    location    "0";
    object      S;
}

dimensions      [0 0 -1 0 0 0 0];

internalField   nonuniform List<SymmTensorField> 
14751
(
(0.000375273 -0.811028000 0 -0.000407937 0 0)
(0.000399749 -0.806661000 0 -0.000450254 0 0)
(0.000393600 -0.802618000 0 -0.000418320 0 0)
(0.000474254 -0.798151000 0 -0.000576571 0 0)
(0.000525382 -0.792133000 0 -0.000610332 0 0)
(0.000537864 -0.786405000 0 -0.000647236 0 0)
(0.000574219 -0.780014000 0 -0.000703289 0 0)
(0.000587433 -0.773403000 0 -0.000719285 0 0)
(0.000602784 -0.766606000 0 -0.000757743 0 0)
(0.000613681 -0.759563000 0 -0.000767920 0 0)
(0.000617872 -0.752463000 0 -0.000789875 0 0)
(0.000615580 -0.745263000 0 -0.000782350 0 0)
(0.000611265 -0.738140000 0 -0.000791862 0 0)
(0.000605708 -0.730967000 0 -0.000779765 0 0)
(0.000597057 -0.723915000 0 -0.000780437 0 0)
(0.000583339 -0.716890000 0 -0.000760027 0 0)
(0.000565666 -0.710101000 0 -0.000745883 0 0)
(0.000548169 -0.703435000 0 -0.000723792 0 0)
(0.000526863 -0.697020000 0 -0.000701320 0 0)
(0.000504742 -0.690822000 0 -0.000674846 0 0)
(0.000479956 -0.684903000 0 -0.000646095 0 0)
(0.000454891 -0.679261000 0 -0.000616227 0 0)
(0.000428780 -0.673900000 0 -0.000585285 0 0)
(0.000401758 -0.668845000 0 -0.000552111 0 0)
(0.000374733 -0.664095000 0 -0.000519614 0 0)
(0.000347368 -0.659654000 0 -0.000485354 0 0)
(0.000319926 -0.655529000 0 -0.000451951 0 0)
(0.000292268 -0.651718000 0 -0.000416647 0 0)
(0.000265039 -0.648230000 0 -0.000383040 0 0)
(0.000238301 -0.645048000 0 -0.000348743 0 0)
(0.000211696 -0.642179000 0 -0.000315185 0 0)
(0.000185447 -0.639615000 0 -0.000281304 0 0)
(0.000159543 -0.637357000 0 -0.000248392 0 0)
(0.000134274 -0.635395000 0 -0.000215637 0 0)
(0.000109492 -0.633726000 0 -0.000183795 0 0)
(8.53409e-05 -0.632343000 0 -0.000151931 0 0)
(6.20294e-05 -0.631242000 0 -0.000121284 0 0)
(3.92808e-05 -0.630409000 0 -9.11178e-05 0 0)
(1.67338e-05 -0.629847000 0 -6.11189e-05 0 0)
(-5.45476e-06 -0.629546000 0 -3.21050e-05 0 0)
(-2.75061e-05 -0.629503000 0 -2.84823e-06 0 0)
(-4.92102e-05 -0.629718000 0 2.52889e-05 0 0)
(-7.03515e-05 -0.630183000 0 5.33623e-05 0 0)
(-9.05128e-05 -0.630893000 0 7.99584e-05 0 0)
(-0.000109484 -0.631835000 0 0.000106303 0 0)
(-0.000127615 -0.633003000 0 0.000131267 0 0)
(-0.000145396 -0.634389000 0 0.000156549 0 0)
(-0.000163390 -0.635993000 0 0.000180824 0 0)
(-0.000182501 -0.637814000 0 0.000206559 0 0)
(-0.000202662 -0.639868000 0 0.000231907 0 0)
(-0.000222824 -0.642151000 0 0.000257470 0 0)
(-0.000241865 -0.644664000 0 0.000281844 0 0)
(-0.000258246 -0.647389000 0 0.000304670 0 0)
(-0.000271617 -0.650303000 0 0.000325191 0 0)
(-0.000283097 -0.653386000 0 0.000344893 0 0)
(-0.000295348 -0.656629000 0 0.000364120 0 0)
(-0.000311872 -0.660049000 0 0.000386532 0 0)
(-0.000333223 -0.663687000 0 0.000410666 0 0)
(-0.000356395 -0.667567000 0 0.000436089 0 0)
(-0.000375923 -0.671687000 0 0.000458589 0 0)
(-0.000387617 -0.675997000 0 0.000476692 0 0)
(-0.000392237 -0.680435000 0 0.000489989 0 0)
(-0.000395531 -0.684960000 0 0.000502476 0 0)
(-0.000404348 -0.689589000 0 0.000517096 0 0)
(-0.000421429 -0.694374000 0 0.000536118 0 0)
(-0.000442640 -0.699372000 0 0.000556969 0 0)
(-0.000460842 -0.704576000 0 0.000575483 0 0)
(-0.000471075 -0.709949000 0 0.000589730 0 0)
(-0.000473386 -0.715413000 0 0.000597531 0 0)
(-0.000473032 -0.720925000 0 0.000603934 0 0)
(-0.000475129 -0.726481000 0 0.000609690 0 0)
(-0.000480733 -0.732104000 0 0.000617929 0 0)
(-0.000487237 -0.737807000 0 0.000624023 0 0)
(-0.000491791 -0.743578000 0 0.000629885 0 0)
(-0.000493044 -0.749388000 0 0.000631177 0 0)
(-0.000490822 -0.755209000 0 0.000631975 0 0)
(-0.000485074 -0.761006000 0 0.000626092 0 0)
(-0.000477164 -0.766740000 0 0.000620196 0 0)
(-0.000467150 -0.772398000 0 0.000609320 0 0)
(-0.000455466 -0.777942000 0 0.000598150 0 0)
(-0.000440626 -0.783366000 0 0.000582200 0 0)
(-0.000423125 -0.788603000 0 0.000563052 0 0)
(-0.000405360 -0.793657000 0 0.000544561 0 0)
(-0.000381050 -0.798523000 0 0.000518241 0 0)
(-0.000354959 -0.803061000 0 0.000486266 0 0)
(-0.000322916 -0.807352000 0 0.000456738 0 0)
(-0.000287483 -0.811170000 0 0.000405311 0 0)
(-0.000253060 -0.814657000 0 0.000381976 0 0)
(-0.000204275 -0.817674000 0 0.000307106 0 0)
(-0.000160476 -0.820063000 0 0.000273166 0 0)
(-0.000108321 -0.822077000 0 0.000198984 0 0)
(-5.52373e-05 -0.823280000 0 0.000142009 0 0)
(-4.80025e-06 -0.824079000 0 8.20158e-05 0 0)
(5.23731e-05 -0.824107000 0 2.77697e-06 0 0)
(0.000126450 -0.823583000 0 -6.83534e-05 0 0)
(0.000194265 -0.821966000 0 -0.000181932 0 0)
(0.000220965 -0.819965000 0 -0.000171265 0 0)
(0.000270467 -0.817683000 0 -0.000283297 0 0)
(0.000319773 -0.814527000 0 -0.000307105 0 0)
(0.000518102 -0.267799000 0 -0.000500318 0 0)
(0.000541682 -0.266440000 0 -0.000521592 0 0)
(0.000577958 -0.264928000 0 -0.000523235 0 0)
(0.000699339 -0.263114000 0 -0.000642173 0 0)
(0.000787726 -0.260862000 0 -0.000695907 0 0)
(0.000821087 -0.258532000 0 -0.000723392 0 0)
(0.000881711 -0.255954000 0 -0.000769770 0 0)
(0.000915492 -0.253226000 0 -0.000786143 0 0)
(0.000947445 -0.250365000 0 -0.000812429 0 0)
(0.000973839 -0.247379000 0 -0.000822474 0 0)
(0.000987523 -0.244323000 0 -0.000834775 0 0)
(0.000994397 -0.241207000 0 -0.000829915 0 0)
(0.000995424 -0.238063000 0 -0.000832428 0 0)
(0.000994599 -0.234889000 0 -0.000823426 0 0)
(0.000986401 -0.231727000 0 -0.000818294 0 0)
(0.000971566 -0.228576000 0 -0.000799401 0 0)
(0.000949392 -0.225482000 0 -0.000780468 0 0)
(0.000926074 -0.222436000 0 -0.000756704 0 0)
(0.000896445 -0.219471000 0 -0.000730191 0 0)
(0.000864270 -0.216590000 0 -0.000700609 0 0)
(0.000827988 -0.213811000 0 -0.000668238 0 0)
(0.000790652 -0.211137000 0 -0.000634767 0 0)
(0.000751102 -0.208576000 0 -0.000600084 0 0)
(0.000709758 -0.206134000 0 -0.000563594 0 0)
(0.000667641 -0.203816000 0 -0.000527292 0 0)
(0.000624809 -0.201626000 0 -0.000489924 0 0)
(0.000581330 -0.199566000 0 -0.000452974 0 0)
(0.000537204 -0.197638000 0 -0.000415002 0 0)
(0.000493390 -0.195844000 0 -0.000378176 0 0)
(0.000450155 -0.194182000 0 -0.000341388 0 0)
(0.000406883 -0.192652000 0 -0.000305200 0 0)
(0.000364004 -0.191253000 0 -0.000269113 0 0)
(0.000321638 -0.189985000 0 -0.000233943 0 0)
(0.000280185 -0.188845000 0 -0.000199310 0 0)
(0.000239258 -0.187831000 0 -0.000165602 0 0)
(0.000198934 -0.186942000 0 -0.000132364 0 0)
(0.000159675 -0.186178000 0 -0.000100343 0 0)
(0.000121166 -0.185534000 0 -6.90919e-05 0 0)
(8.32849e-05 -0.185012000 0 -3.82998e-05 0 0)
(4.62375e-05 -0.184603000 0 -8.30558e-06 0 0)
(9.64181e-06 -0.184306000 0 2.17476e-05 0 0)
(-2.64178e-05 -0.184121000 0 5.10336e-05 0 0)
(-6.15817e-05 -0.184044000 0 7.98893e-05 0 0)
(-9.58655e-05 -0.184074000 0 0.000107329 0 0)
(-0.000129159 -0.184213000 0 0.000133842 0 0)
(-0.000161704 -0.184460000 0 0.000159061 0 0)
(-0.000193683 -0.184816000 0 0.000184152 0 0)
(-0.000225396 -0.185278000 0 0.000208950 0 0)
(-0.000257521 -0.185842000 0 0.000235229 0 0)
(-0.000289913 -0.186503000 0 0.000262022 0 0)
(-0.000321950 -0.187255000 0 0.000289032 0 0)
(-0.000353259 -0.188100000 0 0.000314733 0 0)
(-0.000382671 -0.189040000 0 0.000337950 0 0)
(-0.000410290 -0.190084000 0 0.000358039 0 0)
(-0.000436558 -0.191238000 0 0.000376453 0 0)
(-0.000462994 -0.192503000 0 0.000395236 0 0)
(-0.000491490 -0.193867000 0 0.000418405 0 0)
(-0.000522183 -0.195315000 0 0.000445768 0 0)
(-0.000553308 -0.196829000 0 0.000475162 0 0)
(-0.000582354 -0.198411000 0 0.000500832 0 0)
(-0.000606947 -0.200079000 0 0.000519103 0 0)
(-0.000627342 -0.201858000 0 0.000530232 0 0)
(-0.000646290 -0.203757000 0 0.000540059 0 0)
(-0.000667088 -0.205764000 0 0.000554660 0 0)
(-0.000691370 -0.207845000 0 0.000577013 0 0)
(-0.000717049 -0.209973000 0 0.000603196 0 0)
(-0.000740780 -0.212142000 0 0.000626193 0 0)
(-0.000759767 -0.214370000 0 0.000641594 0 0)
(-0.000773328 -0.216678000 0 0.000648528 0 0)
(-0.000783971 -0.219076000 0 0.000652957 0 0)
(-0.000794400 -0.221551000 0 0.000658537 0 0)
(-0.000804926 -0.224079000 0 0.000667622 0 0)
(-0.000814459 -0.226641000 0 0.000676155 0 0)
(-0.000821304 -0.229229000 0 0.000682973 0 0)
(-0.000825117 -0.231841000 0 0.000684962 0 0)
(-0.000825188 -0.234478000 0 0.000684063 0 0)
(-0.000820429 -0.237134000 0 0.000677251 0 0)
(-0.000811773 -0.239794000 0 0.000668590 0 0)
(-0.000799544 -0.242450000 0 0.000655552 0 0)
(-0.000783810 -0.245083000 0 0.000640629 0 0)
(-0.000763079 -0.247685000 0 0.000620844 0 0)
(-0.000737966 -0.250237000 0 0.000596981 0 0)
(-0.000711029 -0.252726000 0 0.000572164 0 0)
(-0.000675200 -0.255143000 0 0.000539311 0 0)
(-0.000634736 -0.257454000 0 0.000500863 0 0)
(-0.000585057 -0.259649000 0 0.000459406 0 0)
(-0.000530864 -0.261701000 0 0.000403961 0 0)
(-0.000473441 -0.263584000 0 0.000361354 0 0)
(-0.000400249 -0.265306000 0 0.000286181 0 0)
(-0.000328436 -0.266781000 0 0.000231726 0 0)
(-0.000248102 -0.268070000 0 0.000154138 0 0)
(-0.000164018 -0.269081000 0 8.41379e-05 0 0)
(-8.23055e-05 -0.269874000 0 1.44825e-05 0 0)
(9.03908e-06 -0.270375000 0 -6.75509e-05 0 0)
(0.000119093 -0.270609000 0 -0.000151522 0 0)
(0.000212963 -0.270540000 0 -0.000252937 0 0)
(0.000264162 -0.270249000 0 -0.000272018 0 0)
(0.000338937 -0.269757000 0 -0.000360777 0 0)
(0.000417010 -0.268940000 0 -0.000405340 0 0)
(0.000687843 -0.228398000 0 -0.000684477 0 0)
(0.000692586 -0.226993000 0 -0.000700125 0 0)
(0.000793254 -0.225322000 0 -0.000769944 0 0)
(0.000915536 -0.223445000 0 -0.000928731 0 0)
(0.001040530 -0.221335000 0 -0.001030800 0 0)
(0.001096040 -0.219090000 0 -0.001093110 0 0)
(0.001172030 -0.216681000 0 -0.001171910 0 0)
(0.001225560 -0.214145000 0 -0.001218550 0 0)
(0.001268060 -0.211518000 0 -0.001269160 0 0)
(0.001307090 -0.208807000 0 -0.001301080 0 0)
(0.001325850 -0.206062000 0 -0.001327930 0 0)
(0.001340860 -0.203292000 0 -0.001335890 0 0)
(0.001343370 -0.200519000 0 -0.001346190 0 0)
(0.001345810 -0.197750000 0 -0.001342890 0 0)
(0.001335100 -0.195016000 0 -0.001338760 0 0)
(0.001318570 -0.192321000 0 -0.001318150 0 0)
(0.001290670 -0.189687000 0 -0.001294250 0 0)
(0.001261090 -0.187120000 0 -0.001263260 0 0)
(0.001222810 -0.184635000 0 -0.001226710 0 0)
(0.001180910 -0.182239000 0 -0.001184830 0 0)
(0.001133970 -0.179937000 0 -0.001138480 0 0)
(0.001084720 -0.177737000 0 -0.001089520 0 0)
(0.001032420 -0.175644000 0 -0.001037850 0 0)
(0.000977835 -0.173659000 0 -0.000983116 0 0)
(0.000921668 -0.171789000 0 -0.000927577 0 0)
(0.000864538 -0.170030000 0 -0.000870089 0 0)
(0.000806104 -0.168388000 0 -0.000812206 0 0)
(0.000747013 -0.166860000 0 -0.000752666 0 0)
(0.000687946 -0.165448000 0 -0.000694073 0 0)
(0.000629517 -0.164149000 0 -0.000635212 0 0)
(0.000570934 -0.162963000 0 -0.000576700 0 0)
(0.000512905 -0.161889000 0 -0.000518267 0 0)
(0.000455388 -0.160925000 0 -0.000460825 0 0)
(0.000398863 -0.160069000 0 -0.000403899 0 0)
(0.000343021 -0.159319000 0 -0.000347938 0 0)
(0.000287965 -0.158674000 0 -0.000292412 0 0)
(0.000234084 -0.158132000 0 -0.000238247 0 0)
(0.000181060 -0.157690000 0 -0.000185057 0 0)
(0.000129189 -0.157344000 0 -0.000132818 0 0)
(7.86032e-05 -0.157094000 0 -8.18822e-05 0 0)
(2.84356e-05 -0.156938000 0 -3.11810e-05 0 0)
(-2.10469e-05 -0.156874000 0 1.83997e-05 0 0)
(-6.92897e-05 -0.156900000 0 6.73133e-05 0 0)
(-0.000116881 -0.157016000 0 0.000115007 0 0)
(-0.000163355 -0.157221000 0 0.000162154 0 0)
(-0.000209136 -0.157516000 0 0.000208160 0 0)
(-0.000254029 -0.157898000 0 0.000253794 0 0)
(-0.000298508 -0.158367000 0 0.000298349 0 0)
(-0.000342726 -0.158920000 0 0.000343263 0 0)
(-0.000386862 -0.159554000 0 0.000387510 0 0)
(-0.000430294 -0.160266000 0 0.000431463 0 0)
(-0.000473162 -0.161056000 0 0.000474594 0 0)
(-0.000514682 -0.161926000 0 0.000516684 0 0)
(-0.000555108 -0.162880000 0 0.000557493 0 0)
(-0.000594264 -0.163922000 0 0.000597457 0 0)
(-0.000633069 -0.165049000 0 0.000636508 0 0)
(-0.000672348 -0.166256000 0 0.000676446 0 0)
(-0.000712323 -0.167534000 0 0.000716374 0 0)
(-0.000751921 -0.168874000 0 0.000756383 0 0)
(-0.000790370 -0.170278000 0 0.000794883 0 0)
(-0.000826156 -0.171754000 0 0.000831254 0 0)
(-0.000859337 -0.173314000 0 0.000864998 0 0)
(-0.000890617 -0.174963000 0 0.000897099 0 0)
(-0.000921429 -0.176693000 0 0.000928206 0 0)
(-0.000952534 -0.178487000 0 0.000959473 0 0)
(-0.000983248 -0.180327000 0 0.000990272 0 0)
(-0.001012550 -0.182207000 0 0.001019450 0 0)
(-0.001038700 -0.184141000 0 0.001046160 0 0)
(-0.001060730 -0.186142000 0 0.001068260 0 0)
(-0.001079210 -0.188204000 0 0.001087530 0 0)
(-0.001095610 -0.190324000 0 0.001103770 0 0)
(-0.001109610 -0.192487000 0 0.001118430 0 0)
(-0.001121210 -0.194677000 0 0.001129320 0 0)
(-0.001129100 -0.196893000 0 0.001137900 0 0)
(-0.001134050 -0.199133000 0 0.001142020 0 0)
(-0.001133880 -0.201389000 0 0.001142820 0 0)
(-0.001128320 -0.203660000 0 0.001136160 0 0)
(-0.001116910 -0.205927000 0 0.001125480 0 0)
(-0.001100580 -0.208194000 0 0.001108200 0 0)
(-0.001078750 -0.210436000 0 0.001086710 0 0)
(-0.001050530 -0.212642000 0 0.001057970 0 0)
(-0.001016280 -0.214808000 0 0.001023020 0 0)
(-0.000977854 -0.216912000 0 0.000984673 0 0)
(-0.000929119 -0.218948000 0 0.000935615 0 0)
(-0.000873406 -0.220897000 0 0.000877477 0 0)
(-0.000805111 -0.222732000 0 0.000812803 0 0)
(-0.000733440 -0.224443000 0 0.000732181 0 0)
(-0.000650544 -0.225997000 0 0.000659618 0 0)
(-0.000557223 -0.227417000 0 0.000552733 0 0)
(-0.000454345 -0.228637000 0 0.000461590 0 0)
(-0.000349209 -0.229681000 0 0.000347093 0 0)
(-0.000235753 -0.230513000 0 0.000237228 0 0)
(-0.000124153 -0.231124000 0 0.000125891 0 0)
(-3.37574e-06 -0.231500000 0 -8.27309e-07 0 0)
(0.000136715 -0.231633000 0 -0.000129091 0 0)
(0.000249787 -0.231549000 0 -0.000264255 0 0)
(0.000336651 -0.231184000 0 -0.000319732 0 0)
(0.000430180 -0.230588000 0 -0.000443885 0 0)
(0.000534772 -0.229690000 0 -0.000522271 0 0)
(0.000863478 -0.194637000 0 -0.000863690 0 0)
(0.000847947 -0.193203000 0 -0.000857805 0 0)
(0.001015580 -0.191472000 0 -0.000996273 0 0)
(0.001121780 -0.189578000 0 -0.001138500 0 0)
(0.001275920 -0.187597000 0 -0.001272440 0 0)
(0.001351840 -0.185460000 0 -0.001355040 0 0)
(0.001437640 -0.183213000 0 -0.001443870 0 0)
(0.001507020 -0.180866000 0 -0.001508110 0 0)
(0.001555800 -0.178446000 0 -0.001564950 0 0)
(0.001604720 -0.175980000 0 -0.001606620 0 0)
(0.001625030 -0.173509000 0 -0.001635160 0 0)
(0.001645700 -0.171030000 0 -0.001649220 0 0)
(0.001647260 -0.168571000 0 -0.001657750 0 0)
(0.001651140 -0.166144000 0 -0.001655590 0 0)
(0.001635400 -0.163763000 0 -0.001646060 0 0)
(0.001616350 -0.161446000 0 -0.001622410 0 0)
(0.001582200 -0.159190000 0 -0.001591480 0 0)
(0.001545590 -0.157014000 0 -0.001553220 0 0)
(0.001498880 -0.154918000 0 -0.001507560 0 0)
(0.001447810 -0.152912000 0 -0.001455790 0 0)
(0.001390930 -0.151002000 0 -0.001398800 0 0)
(0.001330470 -0.149181000 0 -0.001338310 0 0)
(0.001266370 -0.147464000 0 -0.001274450 0 0)
(0.001199650 -0.145843000 0 -0.001207220 0 0)
(0.001130680 -0.144330000 0 -0.001138530 0 0)
(0.001060610 -0.142915000 0 -0.001067810 0 0)
(0.000988806 -0.141599000 0 -0.000996236 0 0)
(0.000916613 -0.140385000 0 -0.000923185 0 0)
(0.000843971 -0.139273000 0 -0.000850722 0 0)
(0.000772118 -0.138257000 0 -0.000778177 0 0)
(0.000699913 -0.137341000 0 -0.000705902 0 0)
(0.000628440 -0.136518000 0 -0.000633856 0 0)
(0.000557617 -0.135788000 0 -0.000562857 0 0)
(0.000487876 -0.135149000 0 -0.000492518 0 0)
(0.000418839 -0.134600000 0 -0.000423225 0 0)
(0.000350793 -0.134137000 0 -0.000354784 0 0)
(0.000284027 -0.133758000 0 -0.000287825 0 0)
(0.000218876 -0.133465000 0 -0.000222129 0 0)
(0.000154914 -0.133247000 0 -0.000157602 0 0)
(9.17820e-05 -0.133110000 0 -9.42778e-05 0 0)
(2.96950e-05 -0.133054000 0 -3.15347e-05 0 0)
(-3.17195e-05 -0.133076000 0 2.99934e-05 0 0)
(-9.16718e-05 -0.133171000 0 9.05763e-05 0 0)
(-0.000150944 -0.133340000 0 0.000150036 0 0)
(-0.000209085 -0.133585000 0 0.000208791 0 0)
(-0.000266598 -0.133899000 0 0.000266435 0 0)
(-0.000322663 -0.134289000 0 0.000323375 0 0)
(-0.000378362 -0.134751000 0 0.000379160 0 0)
(-0.000433362 -0.135279000 0 0.000434732 0 0)
(-0.000487969 -0.135877000 0 0.000489465 0 0)
(-0.000541606 -0.136539000 0 0.000543645 0 0)
(-0.000594860 -0.137267000 0 0.000597096 0 0)
(-0.000646897 -0.138060000 0 0.000649699 0 0)
(-0.000698279 -0.138921000 0 0.000701385 0 0)
(-0.000748317 -0.139855000 0 0.000752129 0 0)
(-0.000797612 -0.140855000 0 0.000801641 0 0)
(-0.000846196 -0.141919000 0 0.000850850 0 0)
(-0.000894586 -0.143047000 0 0.000899191 0 0)
(-0.000942076 -0.144227000 0 0.000947036 0 0)
(-0.000988906 -0.145460000 0 0.000993887 0 0)
(-0.001033760 -0.146757000 0 0.001039500 0 0)
(-0.001077000 -0.148119000 0 0.001083220 0 0)
(-0.001117900 -0.149548000 0 0.001124700 0 0)
(-0.001156890 -0.151041000 0 0.001163680 0 0)
(-0.001194040 -0.152585000 0 0.001200790 0 0)
(-0.001228850 -0.154170000 0 0.001236340 0 0)
(-0.001262750 -0.155800000 0 0.001270340 0 0)
(-0.001295200 -0.157473000 0 0.001302410 0 0)
(-0.001323240 -0.159195000 0 0.001330500 0 0)
(-0.001346530 -0.160967000 0 0.001354940 0 0)
(-0.001367140 -0.162781000 0 0.001375100 0 0)
(-0.001382490 -0.164628000 0 0.001391740 0 0)
(-0.001394900 -0.166506000 0 0.001403740 0 0)
(-0.001403510 -0.168405000 0 0.001412340 0 0)
(-0.001407980 -0.170324000 0 0.001416090 0 0)
(-0.001406160 -0.172258000 0 0.001415090 0 0)
(-0.001397860 -0.174199000 0 0.001406210 0 0)
(-0.001382400 -0.176141000 0 0.001391440 0 0)
(-0.001361420 -0.178074000 0 0.001369070 0 0)
(-0.001331200 -0.179991000 0 0.001340550 0 0)
(-0.001294470 -0.181876000 0 0.001303610 0 0)
(-0.001250600 -0.183725000 0 0.001258710 0 0)
(-0.001199790 -0.185515000 0 0.001207570 0 0)
(-0.001138100 -0.187227000 0 0.001145100 0 0)
(-0.001066930 -0.188868000 0 0.001071790 0 0)
(-0.000978315 -0.190403000 0 0.000988217 0 0)
(-0.000889371 -0.191846000 0 0.000890985 0 0)
(-0.000780657 -0.193146000 0 0.000792537 0 0)
(-0.000670888 -0.194335000 0 0.000669656 0 0)
(-0.000540186 -0.195368000 0 0.000550131 0 0)
(-0.000414418 -0.196263000 0 0.000415035 0 0)
(-0.000274509 -0.196983000 0 0.000278075 0 0)
(-0.000135473 -0.197495000 0 0.000139405 0 0)
(1.02652e-05 -0.197822000 0 -1.22149e-05 0 0)
(0.000174417 -0.197928000 0 -0.000165770 0 0)
(0.000301503 -0.197874000 0 -0.000315364 0 0)
(0.000426902 -0.197507000 0 -0.000411911 0 0)
(0.000535541 -0.196883000 0 -0.000549391 0 0)
(0.000665276 -0.195972000 0 -0.000654994 0 0)
(0.001038150 -0.166708000 0 -0.001038240 0 0)
(0.001006470 -0.165265000 0 -0.001015690 0 0)
(0.001231090 -0.163526000 0 -0.001212970 0 0)
(0.001317210 -0.161675000 0 -0.001330930 0 0)
(0.001492980 -0.159813000 0 -0.001486840 0 0)
(0.001585550 -0.157802000 0 -0.001585250 0 0)
(0.001676220 -0.155712000 0 -0.001678670 0 0)
(0.001758420 -0.153546000 0 -0.001755230 0 0)
(0.001811220 -0.151323000 0 -0.001814470 0 0)
(0.001864770 -0.149090000 0 -0.001861730 0 0)
(0.001885320 -0.146859000 0 -0.001889270 0 0)
(0.001910280 -0.144647000 0 -0.001906570 0 0)
(0.001907900 -0.142461000 0 -0.001911560 0 0)
(0.001911020 -0.140332000 0 -0.001908550 0 0)
(0.001889310 -0.138258000 0 -0.001892520 0 0)
(0.001866020 -0.136250000 0 -0.001864890 0 0)
(0.001825140 -0.134320000 0 -0.001826860 0 0)
(0.001781540 -0.132467000 0 -0.001781380 0 0)
(0.001726680 -0.130696000 0 -0.001727240 0 0)
(0.001665660 -0.129014000 0 -0.001666540 0 0)
(0.001599480 -0.127419000 0 -0.001600120 0 0)
(0.001529180 -0.125910000 0 -0.001529480 0 0)
(0.001454170 -0.124498000 0 -0.001455000 0 0)
(0.001376370 -0.123174000 0 -0.001377050 0 0)
(0.001295720 -0.121941000 0 -0.001297130 0 0)
(0.001215260 -0.120798000 0 -0.001215190 0 0)
(0.001131820 -0.119749000 0 -0.001132070 0 0)
(0.001047270 -0.118785000 0 -0.001047730 0 0)
(0.000962845 -0.117907000 0 -0.000963641 0 0)
(0.000879130 -0.117118000 0 -0.000879663 0 0)
(0.000794971 -0.116409000 0 -0.000795951 0 0)
(0.000712334 -0.115784000 0 -0.000712579 0 0)
(0.000629903 -0.115237000 0 -0.000630335 0 0)
(0.000548701 -0.114769000 0 -0.000549030 0 0)
(0.000468470 -0.114370000 0 -0.000468856 0 0)
(0.000389843 -0.114046000 0 -0.000389933 0 0)
(0.000312027 -0.113793000 0 -0.000312537 0 0)
(0.000236006 -0.113610000 0 -0.000236381 0 0)
(0.000161972 -0.113495000 0 -0.000161463 0 0)
(8.78132e-05 -0.113449000 0 -8.77196e-05 0 0)
(1.45295e-05 -0.113466000 0 -1.49568e-05 0 0)
(-5.69001e-05 -0.113550000 0 5.65565e-05 0 0)
(-0.000126461 -0.113694000 0 0.000126893 0 0)
(-0.000196352 -0.113902000 0 0.000196171 0 0)
(-0.000264143 -0.114174000 0 0.000264529 0 0)
(-0.000331440 -0.114502000 0 0.000331795 0 0)
(-0.000398080 -0.114891000 0 0.000398058 0 0)
(-0.000463408 -0.115342000 0 0.000463177 0 0)
(-0.000527346 -0.115848000 0 0.000527622 0 0)
(-0.000591134 -0.116408000 0 0.000591189 0 0)
(-0.000653555 -0.117029000 0 0.000653968 0 0)
(-0.000715639 -0.117700000 0 0.000716032 0 0)
(-0.000776292 -0.118428000 0 0.000777270 0 0)
(-0.000837222 -0.119213000 0 0.000837655 0 0)
(-0.000896532 -0.120049000 0 0.000896904 0 0)
(-0.000954003 -0.120947000 0 0.000954758 0 0)
(-0.001011060 -0.121894000 0 0.001011480 0 0)
(-0.001066950 -0.122892000 0 0.001066930 0 0)
(-0.001120180 -0.123938000 0 0.001121470 0 0)
(-0.001174280 -0.125032000 0 0.001175180 0 0)
(-0.001227160 -0.126178000 0 0.001227820 0 0)
(-0.001277940 -0.127374000 0 0.001278690 0 0)
(-0.001326090 -0.128621000 0 0.001326760 0 0)
(-0.001371000 -0.129915000 0 0.001371500 0 0)
(-0.001412110 -0.131252000 0 0.001413230 0 0)
(-0.001451760 -0.132628000 0 0.001452710 0 0)
(-0.001490040 -0.134048000 0 0.001490340 0 0)
(-0.001524710 -0.135499000 0 0.001525800 0 0)
(-0.001556880 -0.136984000 0 0.001557390 0 0)
(-0.001583680 -0.138510000 0 0.001584540 0 0)
(-0.001605330 -0.140071000 0 0.001606600 0 0)
(-0.001622230 -0.141657000 0 0.001623760 0 0)
(-0.001635350 -0.143274000 0 0.001635710 0 0)
(-0.001641680 -0.144908000 0 0.001643070 0 0)
(-0.001644840 -0.146550000 0 0.001644980 0 0)
(-0.001639670 -0.148210000 0 0.001640630 0 0)
(-0.001628100 -0.149866000 0 0.001628220 0 0)
(-0.001606860 -0.151534000 0 0.001608240 0 0)
(-0.001578970 -0.153181000 0 0.001579660 0 0)
(-0.001541790 -0.154817000 0 0.001542750 0 0)
(-0.001495800 -0.156420000 0 0.001496110 0 0)
(-0.001440780 -0.157980000 0 0.001440100 0 0)
(-0.001374150 -0.159483000 0 0.001374970 0 0)
(-0.001296940 -0.160917000 0 0.001298220 0 0)
(-0.001210810 -0.162284000 0 0.001210030 0 0)
(-0.001105520 -0.163563000 0 0.001108960 0 0)
(-0.001001610 -0.164776000 0 0.000996800 0 0)
(-0.000868804 -0.165866000 0 0.000874707 0 0)
(-0.000744418 -0.166869000 0 0.000738591 0 0)
(-0.000589632 -0.167748000 0 0.000594596 0 0)
(-0.000446347 -0.168510000 0 0.000442488 0 0)
(-0.000281817 -0.169130000 0 0.000282664 0 0)
(-0.000120010 -0.169575000 0 0.000120955 0 0)
(4.59843e-05 -0.169855000 0 -5.01322e-05 0 0)
(0.000229456 -0.169950000 0 -0.000222331 0 0)
(0.000369131 -0.169914000 0 -0.000382965 0 0)
(0.000531221 -0.169559000 0 -0.000517389 0 0)
(0.000651503 -0.168932000 0 -0.000665103 0 0)
(0.000802193 -0.168029000 0 -0.000793253 0 0)
(0.001208350 -0.143775000 0 -0.001208600 0 0)
(0.001167580 -0.142351000 0 -0.001176370 0 0)
(0.001435670 -0.140649000 0 -0.001417680 0 0)
(0.001501670 -0.138881000 0 -0.001514480 0 0)
(0.001691620 -0.137136000 0 -0.001685530 0 0)
(0.001796830 -0.135254000 0 -0.001796160 0 0)
(0.001890910 -0.133326000 0 -0.001892310 0 0)
(0.001981050 -0.131328000 0 -0.001977040 0 0)
(0.002034130 -0.129306000 0 -0.002036910 0 0)
(0.002091340 -0.127288000 0 -0.002086910 0 0)
(0.002109870 -0.125286000 0 -0.002112200 0 0)
(0.002135170 -0.123324000 0 -0.002130640 0 0)
(0.002129020 -0.121395000 0 -0.002131200 0 0)
(0.002128680 -0.119524000 0 -0.002125550 0 0)
(0.002101380 -0.117723000 0 -0.002102450 0 0)
(0.002072850 -0.115991000 0 -0.002069750 0 0)
(0.002023920 -0.114340000 0 -0.002024450 0 0)
(0.001973260 -0.112761000 0 -0.001971540 0 0)
(0.001909620 -0.111269000 0 -0.001909130 0 0)
(0.001840770 -0.109861000 0 -0.001839860 0 0)
(0.001766040 -0.108528000 0 -0.001764580 0 0)
(0.001685460 -0.107282000 0 -0.001684510 0 0)
(0.001600670 -0.106118000 0 -0.001600290 0 0)
(0.001513980 -0.105040000 0 -0.001512590 0 0)
(0.001423500 -0.104039000 0 -0.001422550 0 0)
(0.001331270 -0.103118000 0 -0.001330550 0 0)
(0.001237410 -0.102284000 0 -0.001237120 0 0)
(0.001144240 -0.101524000 0 -0.001142750 0 0)
(0.001048920 -0.100841000 0 -0.001048370 0 0)
(0.000955131 -0.100230000 0 -0.000954318 0 0)
(0.000860941 -0.099688800 0 -0.000860613 0 0)
(0.000767755 -0.099218900 0 -0.000767462 0 0)
(0.000675491 -0.098814700 0 -0.000675440 0 0)
(0.000585281 -0.098478500 0 -0.000584663 0 0)
(0.000496083 -0.098200900 0 -0.000495130 0 0)
(0.000407308 -0.097988000 0 -0.000406879 0 0)
(0.000320051 -0.097834400 0 -0.000320087 0 0)
(0.000234680 -0.097742500 0 -0.000234542 0 0)
(0.000150721 -0.097707400 0 -0.000150380 0 0)
(6.80086e-05 -0.097735600 0 -6.74895e-05 0 0)
(-1.36335e-05 -0.097810900 0 1.40936e-05 0 0)
(-9.41909e-05 -0.097943900 0 9.44119e-05 0 0)
(-0.000172782 -0.098126600 0 0.000173371 0 0)
(-0.000251796 -0.098366100 0 0.000251294 0 0)
(-0.000327846 -0.098654600 0 0.000328086 0 0)
(-0.000403457 -0.098995100 0 0.000403809 0 0)
(-0.000478267 -0.099383300 0 0.000478264 0 0)
(-0.000551969 -0.099823100 0 0.000551596 0 0)
(-0.000623426 -0.100307000 0 0.000623857 0 0)
(-0.000695590 -0.100840000 0 0.000695172 0 0)
(-0.000765713 -0.101421000 0 0.000765485 0 0)
(-0.000834911 -0.102045000 0 0.000835048 0 0)
(-0.000904086 -0.102719000 0 0.000903743 0 0)
(-0.000971521 -0.103440000 0 0.000971558 0 0)
(-0.001037990 -0.104200000 0 0.001038050 0 0)
(-0.001103590 -0.105010000 0 0.001103020 0 0)
(-0.001165890 -0.105864000 0 0.001166170 0 0)
(-0.001227960 -0.106754000 0 0.001227700 0 0)
(-0.001288150 -0.107689000 0 0.001287870 0 0)
(-0.001348040 -0.108667000 0 0.001347220 0 0)
(-0.001406080 -0.109681000 0 0.001405440 0 0)
(-0.001462220 -0.110738000 0 0.001461840 0 0)
(-0.001515070 -0.111833000 0 0.001514990 0 0)
(-0.001564250 -0.112966000 0 0.001564220 0 0)
(-0.001609750 -0.114135000 0 0.001609500 0 0)
(-0.001652560 -0.115339000 0 0.001651830 0 0)
(-0.001692760 -0.116571000 0 0.001691860 0 0)
(-0.001729340 -0.117833000 0 0.001729240 0 0)
(-0.001763180 -0.119124000 0 0.001762700 0 0)
(-0.001791690 -0.120442000 0 0.001791060 0 0)
(-0.001814620 -0.121786000 0 0.001813650 0 0)
(-0.001830550 -0.123157000 0 0.001830190 0 0)
(-0.001842420 -0.124541000 0 0.001840930 0 0)
(-0.001845940 -0.125941000 0 0.001845870 0 0)
(-0.001845830 -0.127353000 0 0.001844680 0 0)
(-0.001836050 -0.128764000 0 0.001835900 0 0)
(-0.001819870 -0.130184000 0 0.001818890 0 0)
(-0.001792850 -0.131593000 0 0.001792320 0 0)
(-0.001757290 -0.132992000 0 0.001755640 0 0)
(-0.001709580 -0.134361000 0 0.001708450 0 0)
(-0.001651430 -0.135696000 0 0.001650530 0 0)
(-0.001583770 -0.136990000 0 0.001582600 0 0)
(-0.001504280 -0.138236000 0 0.001503690 0 0)
(-0.001413740 -0.139432000 0 0.001413070 0 0)
(-0.001312590 -0.140567000 0 0.001310410 0 0)
(-0.001190850 -0.141630000 0 0.001193180 0 0)
(-0.001072850 -0.142630000 0 0.001066960 0 0)
(-0.000919025 -0.143531000 0 0.000923729 0 0)
(-0.000781930 -0.144361000 0 0.000775220 0 0)
(-0.000605477 -0.145102000 0 0.000609657 0 0)
(-0.000445992 -0.145732000 0 0.000442243 0 0)
(-0.000262853 -0.146261000 0 0.000262523 0 0)
(-8.06131e-05 -0.146633000 0 8.08640e-05 0 0)
(0.000102764 -0.146858000 0 -0.000106453 0 0)
(0.000300347 -0.146940000 0 -0.000293677 0 0)
(0.000450894 -0.146898000 0 -0.000464527 0 0)
(0.000645303 -0.146555000 0 -0.000631823 0 0)
(0.000776200 -0.145936000 0 -0.000788928 0 0)
(0.000944774 -0.145056000 0 -0.000935847 0 0)
(0.001372620 -0.124862000 0 -0.001373180 0 0)
(0.001329040 -0.123468000 0 -0.001338210 0 0)
(0.001624560 -0.121856000 0 -0.001607550 0 0)
(0.001675500 -0.120189000 0 -0.001688390 0 0)
(0.001874810 -0.118557000 0 -0.001869050 0 0)
(0.001987570 -0.116800000 0 -0.001987560 0 0)
(0.002082740 -0.115026000 0 -0.002084900 0 0)
(0.002177550 -0.113203000 0 -0.002173610 0 0)
(0.002229240 -0.111374000 0 -0.002231880 0 0)
(0.002285620 -0.109560000 0 -0.002281850 0 0)
(0.002300660 -0.107786000 0 -0.002303900 0 0)
(0.002324980 -0.106046000 0 -0.002321340 0 0)
(0.002314650 -0.104360000 0 -0.002316710 0 0)
(0.002310400 -0.102735000 0 -0.002306870 0 0)
(0.002275190 -0.101177000 0 -0.002276630 0 0)
(0.002240520 -0.099704100 0 -0.002238350 0 0)
(0.002184990 -0.098288900 0 -0.002185750 0 0)
(0.002126640 -0.096955200 0 -0.002125300 0 0)
(0.002054310 -0.095697900 0 -0.002054830 0 0)
(0.001977690 -0.094519800 0 -0.001977330 0 0)
(0.001894430 -0.093414700 0 -0.001893720 0 0)
(0.001805760 -0.092389800 0 -0.001804970 0 0)
(0.001712030 -0.091437600 0 -0.001711850 0 0)
(0.001615770 -0.090561200 0 -0.001615340 0 0)
(0.001516950 -0.089759100 0 -0.001516230 0 0)
(0.001416520 -0.089029700 0 -0.001415270 0 0)
(0.001312940 -0.088364000 0 -0.001312780 0 0)
(0.001209670 -0.087774500 0 -0.001209720 0 0)
(0.001106180 -0.087244600 0 -0.001106440 0 0)
(0.001004320 -0.086776100 0 -0.001003600 0 0)
(0.000901391 -0.086375100 0 -0.000901280 0 0)
(0.000800287 -0.086028800 0 -0.000799854 0 0)
(0.000699406 -0.085739300 0 -0.000699462 0 0)
(0.000600665 -0.085508800 0 -0.000600333 0 0)
(0.000502980 -0.085332400 0 -0.000502507 0 0)
(0.000406578 -0.085212000 0 -0.000405998 0 0)
(0.000310999 -0.085142500 0 -0.000310905 0 0)
(0.000217363 -0.085123300 0 -0.000217240 0 0)
(0.000125226 -0.085152900 0 -0.000125118 0 0)
(3.43054e-05 -0.085230900 0 -3.43347e-05 0 0)
(-5.46864e-05 -0.085359300 0 5.48761e-05 0 0)
(-0.000142662 -0.085527500 0 0.000142814 0 0)
(-0.000228595 -0.085745000 0 0.000229250 0 0)
(-0.000315035 -0.086005100 0 0.000314618 0 0)
(-0.000398391 -0.086307000 0 0.000398670 0 0)
(-0.000481349 -0.086654000 0 0.000481646 0 0)
(-0.000563402 -0.087042100 0 0.000563148 0 0)
(-0.000643821 -0.087468000 0 0.000643529 0 0)
(-0.000721880 -0.087938500 0 0.000722498 0 0)
(-0.000800777 -0.088447300 0 0.000800446 0 0)
(-0.000876970 -0.088991400 0 0.000877182 0 0)
(-0.000953039 -0.089578300 0 0.000953076 0 0)
(-0.001028400 -0.090201800 0 0.001027990 0 0)