/*--------------------------------*- C++ -*----------------------------------*\
| =========                 |                                                 |
| \\      /  F ield         | OpenFOAM: The Open Source CFD Toolbox           |
|  \\    /   O peration     | Version:  2306                                  |
|   \\  /    A nd           | Website:  www.openfoam.com                      |
|    \\/     M anipulation  |                                                 |
\*---------------------------------------------------------------------------*/
// * * * * * * * * * * * * * * * * * * * * * * * * * * * * * * * * * * * * * //
FoamFile
{
    version         2;
    format          ascii;
    class           volSymmTensorField;
    location        "0";
    object          S;
}

dimensions      [ 0 0 -1 0 0 0 0 ];

internalField   nonuniform List<symmTensor> 
5
(
(0.000375273 -0.811028 -9.6156e-24 -0.000407937 -1.46684e-25 6.15812e-51)
(-2.77022 -0.951032 -1.14151e-19 2.69102 -1.64148e-19 0)
(-4.40095 0.78576 -5.30074e-17 4.2494 -3.38788e-17 -2.64852e-35)
(-1.80567 3.52294 -4.37852e-20 1.89468 3.57386e-20 2.41209e-38)
(-0.0322473 2.08805 -7.72513e-20 0.0587137 -4.84568e-19 5.14402e-39)
)
;

// ************************************************************************* // 