/*--------------------------------*- C++ -*----------------------------------*\
| =========                 |                                                 |
| \\      /  F ield         | OpenFOAM: The Open Source CFD Toolbox           |
|  \\    /   O peration     | Version:  2306                                  |
|   \\  /    A nd           | Website:  www.openfoam.com                      |
|    \\/     M anipulation  |                                                 |
\*---------------------------------------------------------------------------*/
// * * * * * * * * * * * * * * * * * * * * * * * * * * * * * * * * * * * * * //
FoamFile
{
    version         2;
    format          ascii;
    class           volSymmTensorField;
    location        "0";
    object          S;
}

dimensions      [ 0 0 -1 0 0 0 0 ];

internalField   nonuniform List<symmTensor> 
7
(
(0.000375273 -0.811028 -9.6156e-24 -0.000407937 -1.46684e-25 6.15812e-51)
(0.000399749 -0.806661 9.71254e-24 -0.000450254 2.70164e-23 -6.15844e-51)
(-0.00208919 0.344004 3.87637e-25 0.00494915 1.22854e-25 -7.87627e-44)
(-0.0023608 0.262537 4.39116e-24 0.00505422 -1.13061e-23 -1.62578e-46)
(-0.0275749 0.175412 -1.41362e-25 0.0291108 -1.03338e-26 0)
(-1.80567 3.52294 -4.37852e-20 1.89468 3.57386e-20 2.41209e-38)
(-0.0322473 2.08805 -7.72513e-20 0.0587137 -4.84568e-19 5.14402e-39)
)
;
    }
    defaultFaces
    {
        type            empty;
    }
    inlet
    {
        type            cyclic;
    }
    outlet
    {
        type            cyclic;
    }
    topWall
    {
        type            calculated;
        value           nonuniform List<symmTensor> 
5
(
(0.000375273 -1.33328 -9.6156e-24 -0.00040871 -5.69168e-25 6.15812e-51)
(0.000399749 -1.32587 9.71254e-24 -0.000477955 5.70036e-25 -6.15844e-51)
(0.000220965 -1.34895 -1.16452e-23 -7.63717e-05 3.14533e-24 7.88303e-48)
(0.000270467 -1.3448 -4.40512e-26 -0.00023907 0 0)
(0.000319773 -1.33924 -7.9476e-27 -0.000260986 0 0)
)
;
    }
}


// ************************************************************************* //
    }
    defaultFaces
    {
        type            empty;
    }
    inlet
    {
        type            cyclic;
    }
    outlet
    {
        type            cyclic;
    }
    topWall
    {
        type            calculated;
        value           nonuniform List<symmTensor> 
5
(
(0.000375273 -1.33328 -9.6156e-24 -0.00040871 -5.69168e-25 6.15812e-51)
(0.000399749 -1.32587 9.71254e-24 -0.000477955 5.70036e-25 -6.15844e-51)
(0.000220965 -1.34895 -1.16452e-23 -7.63717e-05 3.14533e-24 7.88303e-48)
(0.000270467 -1.3448 -4.40512e-26 -0.00023907 0 0)
(0.000319773 -1.33924 -7.9476e-27 -0.000260986 0 0)
)
;
    }
}


// ************************************************************************* //
